
     Program PWSCF v.7.5 starts on 13Jan2026 at  9:29:43 

     This program is part of the open-source Quantum ESPRESSO suite
     for quantum simulation of materials; please cite
         "P. Giannozzi et al., J. Phys.:Condens. Matter 21 395502 (2009);
         "P. Giannozzi et al., J. Phys.:Condens. Matter 29 465901 (2017);
         "P. Giannozzi et al., J. Chem. Phys. 152 154105 (2020);
          URL http://www.quantum-espresso.org", 
     in publications or presentations arising from this work. More details at
     http://www.quantum-espresso.org/quote

     Parallel version (MPI), running on     4 processors

     MPI processes distributed on     1 nodes
     2166 MiB available memory on the printing compute node when the environment starts

     Waiting for input...
     Reading input from standard input

     Current dimensions of program PWSCF are:
     Max number of different atomic species (ntypx) = 10
     Max number of k-points (npk) =  40000
     Max angular momentum in pseudopotentials (lmaxx) =  4

     R & G space division:  proc/nbgrp/npool/nimage =       4
     Subspace diagonalization in iterative solution of the eigenvalue problem:
     a serial algorithm will be used


     Parallelization info
     --------------------
     sticks:   dense  smooth     PW     G-vecs:    dense   smooth      PW
     Min          90      90     27                 5582     5582     961
     Max          91      91     28                 5595     5595     974
     Sum         361     361    109                22353    22353    3857

     Using Slab Decomposition



     bravais-lattice index     =            4
     lattice parameter (alat)  =       4.6531  a.u.
     unit-cell volume          =     354.3310 (a.u.)^3
     number of atoms/cell      =            2
     number of atomic types    =            1
     number of electrons       =         8.00
     number of Kohn-Sham states=            8
     kinetic-energy cutoff     =      60.0000  Ry
     charge density cutoff     =     240.0000  Ry
     scf convergence threshold =      1.0E-09
     mixing beta               =       0.7000
     number of iterations used =            8  plain     mixing
     energy convergence thresh.=      1.0E-05
     force convergence thresh. =      1.0E-04
     Exchange-correlation= PBE
                           (   1   4   3   4   0   0   0)
     nstep                     =           50


     celldm(1)=   4.653073  celldm(2)=   0.000000  celldm(3)=   4.061244
     celldm(4)=   0.000000  celldm(5)=   0.000000  celldm(6)=   0.000000

     crystal axes: (cart. coord. in units of alat)
               a(1) = (   1.000000   0.000000   0.000000 )  
               a(2) = (  -0.500000   0.866025   0.000000 )  
               a(3) = (   0.000000   0.000000   4.061244 )  

     reciprocal axes: (cart. coord. in units 2 pi/alat)
               b(1) = (  1.000000  0.577350 -0.000000 )  
               b(2) = (  0.000000  1.154701  0.000000 )  
               b(3) = (  0.000000 -0.000000  0.246230 )  


     PseudoPot. # 1 for C  read from file:
     ../pseudo/C.pbe-n-rrkjus_psl.0.1.UPF
     MD5 check sum: 96a6a315177d77e6c95bf6fd3870f9e3
     Pseudo is Ultrasoft + core correction, Zval =  4.0
     Generated using &quot;atomic&quot; code by A. Dal Corso  v.6.3MaX
     Using radial grid of 1073 points,  4 beta functions with: 
                l(1) =   0
                l(2) =   0
                l(3) =   1
                l(4) =   1
     Q(r) pseudized with 0 coefficients 


     atomic species   valence    mass     pseudopotential
     C                 4.00    12.01070     C ( 1.00)

      6 Sym. Ops. (no inversion) found



   Cartesian axes

     site n.     atom                  positions (alat units)
         1        C      tau(   1) = (   0.0000000   0.5773503   2.0306218  )
         2        C      tau(   2) = (   0.5000000   0.2886751   1.6244974  )

     number of k points=    19  Marzari-Vanderbilt smearing, width (Ry)=  0.0200
                       cart. coord. in units 2pi/alat
        k(    1) = (   0.0000000   0.0000000   0.0000000), wk =   0.0138889
        k(    2) = (   0.0000000   0.0962250   0.0000000), wk =   0.0833333
        k(    3) = (   0.0000000   0.1924501   0.0000000), wk =   0.0833333
        k(    4) = (   0.0000000   0.2886751   0.0000000), wk =   0.0833333
        k(    5) = (   0.0000000   0.3849002   0.0000000), wk =   0.0833333
        k(    6) = (   0.0000000   0.4811252   0.0000000), wk =   0.0833333
        k(    7) = (   0.0000000  -0.5773503   0.0000000), wk =   0.0416667
        k(    8) = (   0.0833333   0.1443376   0.0000000), wk =   0.0833333
        k(    9) = (   0.0833333   0.2405626   0.0000000), wk =   0.1666667
        k(   10) = (   0.0833333   0.3367877   0.0000000), wk =   0.1666667
        k(   11) = (   0.0833333   0.4330127   0.0000000), wk =   0.1666667
        k(   12) = (   0.0833333   0.5292377   0.0000000), wk =   0.1666667
        k(   13) = (   0.1666667   0.2886751   0.0000000), wk =   0.0833333
        k(   14) = (   0.1666667   0.3849002   0.0000000), wk =   0.1666667
        k(   15) = (   0.1666667   0.4811252   0.0000000), wk =   0.1666667
        k(   16) = (   0.1666667   0.5773503   0.0000000), wk =   0.0833333
        k(   17) = (   0.2500000   0.4330127   0.0000000), wk =   0.0833333
        k(   18) = (   0.2500000   0.5292377   0.0000000), wk =   0.1666667
        k(   19) = (   0.3333333   0.5773503   0.0000000), wk =   0.0277778

     Dense  grid:    22353 G-vectors     FFT dimensions: (  24,  24,  96)

     Estimated max dynamical RAM per process >       9.55 MB

     Estimated total dynamical RAM >      38.19 MB

     Check: negative core charge=   -0.000004

     Initial potential from superposition of free atoms

     starting charge       7.9999, renormalised to       8.0000

     negative rho (up, down):  5.103E-06 0.000E+00
     Starting wfcs are    8 randomized atomic wfcs

     total cpu time spent up to now is        0.4 secs

     Self-consistent Calculation

     iteration #  1     ecut=    60.00 Ry     beta= 0.70
     Davidson diagonalization with overlap
     ethr =  1.00E-02,  avg # of iterations =  2.0

     Threshold (ethr) on eigenvalues was too large:
     Diagonalizing with lowered threshold

     Davidson diagonalization with overlap
     c_bands:  1 eigenvalues not converged
     c_bands:  1 eigenvalues not converged
     c_bands:  1 eigenvalues not converged
     ethr =  7.94E-05,  avg # of iterations = 15.2

     negative rho (up, down):  1.732E-06 0.000E+00

     total cpu time spent up to now is        1.3 secs

     total energy              =     -23.38310286 Ry
     estimated scf accuracy    <       0.03235223 Ry

     iteration #  2     ecut=    60.00 Ry     beta= 0.70
     Davidson diagonalization with overlap
     ethr =  4.04E-04,  avg # of iterations =  2.9

     negative rho (up, down):  9.721E-08 0.000E+00

     total cpu time spent up to now is        1.4 secs

     total energy              =     -23.39171186 Ry
     estimated scf accuracy    <       0.00777931 Ry

     iteration #  3     ecut=    60.00 Ry     beta= 0.70
     Davidson diagonalization with overlap
     ethr =  9.72E-05,  avg # of iterations =  3.1

     total cpu time spent up to now is        1.6 secs

     total energy              =     -23.39370035 Ry
     estimated scf accuracy    <       0.00020467 Ry

     iteration #  4     ecut=    60.00 Ry     beta= 0.70
     Davidson diagonalization with overlap
     c_bands:  2 eigenvalues not converged
     c_bands:  3 eigenvalues not converged
     c_bands:  1 eigenvalues not converged
     c_bands:  1 eigenvalues not converged
     c_bands:  1 eigenvalues not converged
     c_bands:  1 eigenvalues not converged
     c_bands:  1 eigenvalues not converged
     c_bands:  1 eigenvalues not converged
     ethr =  2.56E-06,  avg # of iterations = 14.4

     total cpu time spent up to now is        2.1 secs

     total energy              =     -23.39430346 Ry
     estimated scf accuracy    <       0.00006361 Ry

     iteration #  5     ecut=    60.00 Ry     beta= 0.70
     Davidson diagonalization with overlap
     c_bands:  1 eigenvalues not converged
     c_bands:  3 eigenvalues not converged
     c_bands:  2 eigenvalues not converged
     ethr =  7.95E-07,  avg # of iterations =  7.2

     negative rho (up, down):  1.206E-08 0.000E+00

     total cpu time spent up to now is        2.3 secs

     total energy              =     -23.39430692 Ry
     estimated scf accuracy    <       0.00003017 Ry

     iteration #  6     ecut=    60.00 Ry     beta= 0.70
     Davidson diagonalization with overlap
     c_bands:  3 eigenvalues not converged
     c_bands:  1 eigenvalues not converged
     ethr =  3.77E-07,  avg # of iterations =  5.4

     negative rho (up, down):  1.127E-08 0.000E+00

     total cpu time spent up to now is        2.5 secs

     total energy              =     -23.39430900 Ry
     estimated scf accuracy    <       0.00011664 Ry

     iteration #  7     ecut=    60.00 Ry     beta= 0.70
     Davidson diagonalization with overlap
     c_bands:  2 eigenvalues not converged
     ethr =  3.77E-07,  avg # of iterations =  2.9

     total cpu time spent up to now is        2.6 secs

     total energy              =     -23.39432066 Ry
     estimated scf accuracy    <       0.00000092 Ry

     iteration #  8     ecut=    60.00 Ry     beta= 0.70
     Davidson diagonalization with overlap
     ethr =  1.15E-08,  avg # of iterations =  5.7

     negative rho (up, down):  1.070E-08 0.000E+00

     total cpu time spent up to now is        2.9 secs

     total energy              =     -23.39432274 Ry
     estimated scf accuracy    <       0.00000034 Ry

     iteration #  9     ecut=    60.00 Ry     beta= 0.70
     Davidson diagonalization with overlap
     ethr =  4.22E-09,  avg # of iterations =  2.0

     negative rho (up, down):  1.071E-08 0.000E+00

     total cpu time spent up to now is        3.0 secs

     total energy              =     -23.39432280 Ry
     estimated scf accuracy    <       0.00000003 Ry

     iteration # 10     ecut=    60.00 Ry     beta= 0.70
     Davidson diagonalization with overlap
     ethr =  3.31E-10,  avg # of iterations =  5.3

     negative rho (up, down):  1.070E-08 0.000E+00

     total cpu time spent up to now is        3.2 secs

     total energy              =     -23.39432283 Ry
     estimated scf accuracy    <       0.00000001 Ry

     iteration # 11     ecut=    60.00 Ry     beta= 0.70
     Davidson diagonalization with overlap
     ethr =  1.38E-10,  avg # of iterations =  1.8

     negative rho (up, down):  1.055E-08 0.000E+00

     total cpu time spent up to now is        3.4 secs

     total energy              =     -23.39432283 Ry
     estimated scf accuracy    <          8.6E-09 Ry

     iteration # 12     ecut=    60.00 Ry     beta= 0.70
     Davidson diagonalization with overlap
     ethr =  1.08E-10,  avg # of iterations =  1.7

     negative rho (up, down):  1.053E-08 0.000E+00

     total cpu time spent up to now is        3.5 secs

     End of self-consistent calculation

          k = 0.0000 0.0000 0.0000 (  2759 PWs)   bands (ev):

   -18.7959  -9.0168  -2.7027   0.4267   0.4268   3.7947   4.4961   5.5311

          k = 0.0000 0.0962 0.0000 (  2774 PWs)   bands (ev):

   -18.6142  -8.8426  -2.5595  -0.4428   0.0889   4.0037   4.7158   5.3902

          k = 0.0000 0.1925 0.0000 (  2786 PWs)   bands (ev):

   -18.0709  -8.3258  -2.5067  -2.1430  -0.6759   4.5013   5.0137   5.3879

          k = 0.0000 0.2887 0.0000 (  2772 PWs)   bands (ev):

   -17.1728  -7.4891  -4.9771  -1.6339  -1.5039   4.0071   5.8263   6.4464

          k = 0.0000 0.3849 0.0000 (  2782 PWs)   bands (ev):

   -15.9369  -7.5510  -6.3267  -2.1876  -1.3597   3.4313   6.5381   7.1814

          k = 0.0000 0.4811 0.0000 (  2776 PWs)   bands (ev):

   -14.4204  -9.8843  -5.0451  -2.6273  -1.8487   3.5917   6.0562   6.5300

          k = 0.0000-0.5774 0.0000 (  2804 PWs)   bands (ev):

   -13.2160 -11.3734  -4.1455  -2.7783  -2.5535   4.1356   5.2078   6.5154

          k = 0.0833 0.1443 0.0000 (  2777 PWs)   bands (ev):

   -18.2516  -8.4970  -2.2897  -1.7403  -0.6431   4.3951   5.1570   5.2957

          k = 0.0833 0.2406 0.0000 (  2778 PWs)   bands (ev):

   -17.5307  -7.8190  -3.8070  -1.8534  -1.6614   4.6058   5.4801   6.0148

          k = 0.0833 0.3368 0.0000 (  2785 PWs)   bands (ev):

   -16.4624  -6.8772  -6.1869  -2.5955  -1.3730   3.9916   6.0855   6.7358

          k = 0.0833 0.4330 0.0000 (  2781 PWs)   bands (ev):

   -15.0756  -8.6728  -5.5861  -3.2162  -1.4468   3.6528   6.0193   7.2791

          k = 0.0833 0.5292 0.0000 (  2789 PWs)   bands (ev):

   -13.5204 -10.7709  -4.3660  -3.5029  -2.2267   3.9085   5.8540   6.4973

          k = 0.1667 0.2887 0.0000 (  2782 PWs)   bands (ev):

   -16.6387  -7.0097  -5.3758  -3.2859  -1.3941   4.6887   5.4643   6.5715

          k = 0.1667 0.3849 0.0000 (  2786 PWs)   bands (ev):

   -15.4129  -7.4461  -5.8475  -4.4595  -1.2196   4.2644   5.1839   8.0663

          k = 0.1667 0.4811 0.0000 (  2774 PWs)   bands (ev):

   -13.9106  -9.5648  -5.1527  -4.5406  -1.6646   3.6716   5.6332   7.6332

          k = 0.1667 0.5774 0.0000 (  2774 PWs)   bands (ev):

   -12.7049 -11.0050  -5.3322  -3.6675  -2.3226   3.4794   6.3162   6.8173

          k = 0.2500 0.4330 0.0000 (  2770 PWs)   bands (ev):

   -14.0574  -8.7163  -6.1210  -4.6921  -1.3984   3.5832   5.3764   8.3090

          k = 0.2500 0.5292 0.0000 (  2781 PWs)   bands (ev):

   -12.5280 -10.2825  -6.9299  -3.5080  -2.0109   2.8281   6.3134   7.6402

          k = 0.3333 0.5774 0.0000 (  2778 PWs)   bands (ev):

   -11.1862 -11.1861  -7.7755  -2.5896  -2.5896   2.3546   7.1560   7.1560

     the Fermi energy is    -1.9941 ev

!    total energy              =     -23.39432283 Ry
     estimated scf accuracy    <          6.5E-10 Ry
     smearing contrib. (-TS)   =       0.00001289 Ry
     internal energy E=F+TS    =     -23.39433572 Ry

     The total energy is F=E-TS. E is the sum of the following terms:
     one-electron contribution =     -73.92643304 Ry
     hartree contribution      =      38.82872293 Ry
     xc contribution           =      -7.65682807 Ry
     ewald contribution        =      19.36020246 Ry

     convergence has been achieved in  12 iterations

     negative rho (up, down):  1.053E-08 0.000E+00

     Forces acting on atoms (cartesian axes, Ry/au):

     atom    1 type  1   force =     0.00000000    0.00000000   -0.29000179
     atom    2 type  1   force =     0.00000000    0.00000000    0.29000179

     Total force =     0.290002     Total SCF correction =     0.000005

     BFGS Geometry Optimization
     Energy error            =      1.5E-01 Ry
     Gradient error          =      2.9E-01 Ry/Bohr

     number of scf cycles    =   1
     number of bfgs steps    =   0

     energy             new  =     -23.3943228303 Ry

     new trust radius        =       0.2900017909 bohr
     new conv_thr            =       0.0000000010 Ry


ATOMIC_POSITIONS (crystal)
C                0.3333333330        0.6666666660        0.5000000000    0   0   0
C                0.6666666660        0.3333333330        0.4153462339



     Writing config-only to output data dir ../tmp/gr.save/ :
     XML data file
     NEW-OLD atomic charge density approx. for the potential

     Check: negative core charge=   -0.000004

     negative rho (up, down):  1.169E-05 0.000E+00

     total cpu time spent up to now is        3.6 secs

     Self-consistent Calculation

     iteration #  1     ecut=    60.00 Ry     beta= 0.70
     Davidson diagonalization with overlap
     c_bands:  5 eigenvalues not converged
     c_bands:  5 eigenvalues not converged
     c_bands:  3 eigenvalues not converged
     c_bands:  1 eigenvalues not converged
     c_bands:  3 eigenvalues not converged
     c_bands:  5 eigenvalues not converged
     c_bands:  1 eigenvalues not converged
     c_bands:  4 eigenvalues not converged
     c_bands:  5 eigenvalues not converged
     c_bands:  5 eigenvalues not converged
     c_bands:  3 eigenvalues not converged
     c_bands:  4 eigenvalues not converged
     c_bands:  4 eigenvalues not converged
     c_bands:  2 eigenvalues not converged
     ethr =  1.00E-06,  avg # of iterations = 24.1

     negative rho (up, down):  2.596E-06 0.000E+00

     total cpu time spent up to now is        4.9 secs

     total energy              =     -23.48533155 Ry
     estimated scf accuracy    <       0.02313330 Ry

     iteration #  2     ecut=    60.00 Ry     beta= 0.70
     Davidson diagonalization with overlap
     ethr =  2.89E-04,  avg # of iterations =  2.3

     negative rho (up, down):  1.186E-07 0.000E+00

     total cpu time spent up to now is        5.0 secs

     total energy              =     -23.48215650 Ry
     estimated scf accuracy    <       0.03118065 Ry

     iteration #  3     ecut=    60.00 Ry     beta= 0.70
     Davidson diagonalization with overlap
     ethr =  2.89E-04,  avg # of iterations =  1.8

     total cpu time spent up to now is        5.1 secs

     total energy              =     -23.48720015 Ry
     estimated scf accuracy    <       0.05914292 Ry

     iteration #  4     ecut=    60.00 Ry     beta= 0.70
     Davidson diagonalization with overlap
     ethr =  2.89E-04,  avg # of iterations =  1.2

     total cpu time spent up to now is        5.2 secs

     total energy              =     -23.49332509 Ry
     estimated scf accuracy    <       0.00017070 Ry

     iteration #  5     ecut=    60.00 Ry     beta= 0.70
     Davidson diagonalization with overlap
     c_bands:  1 eigenvalues not converged
     c_bands:  1 eigenvalues not converged
     c_bands:  1 eigenvalues not converged
     c_bands:  1 eigenvalues not converged
     ethr =  2.13E-06,  avg # of iterations = 14.2

     total cpu time spent up to now is        5.7 secs

     total energy              =     -23.49379436 Ry
     estimated scf accuracy    <       0.00005564 Ry

     iteration #  6     ecut=    60.00 Ry     beta= 0.70
     Davidson diagonalization with overlap
     ethr =  6.96E-07,  avg # of iterations =  3.7

     negative rho (up, down):  1.380E-08 0.000E+00

     total cpu time spent up to now is        5.9 secs

     total energy              =     -23.49379672 Ry
     estimated scf accuracy    <       0.00001587 Ry

     iteration #  7     ecut=    60.00 Ry     beta= 0.70
     Davidson diagonalization with overlap
     ethr =  1.98E-07,  avg # of iterations =  2.9

     negative rho (up, down):  1.614E-08 0.000E+00

     total cpu time spent up to now is        6.0 secs

     total energy              =     -23.49380226 Ry
     estimated scf accuracy    <       0.00000559 Ry

     iteration #  8     ecut=    60.00 Ry     beta= 0.70
     Davidson diagonalization with overlap
     ethr =  6.99E-08,  avg # of iterations =  2.4

     negative rho (up, down):  1.545E-08 0.000E+00

     total cpu time spent up to now is        6.2 secs

     total energy              =     -23.49380301 Ry
     estimated scf accuracy    <       0.00000087 Ry

     iteration #  9     ecut=    60.00 Ry     beta= 0.70
     Davidson diagonalization with overlap
     ethr =  1.09E-08,  avg # of iterations =  4.6

     negative rho (up, down):  1.566E-08 0.000E+00

     total cpu time spent up to now is        6.4 secs

     total energy              =     -23.49380395 Ry
     estimated scf accuracy    <       0.00000058 Ry

     iteration # 10     ecut=    60.00 Ry     beta= 0.70
     Davidson diagonalization with overlap
     ethr =  7.21E-09,  avg # of iterations =  1.9

     negative rho (up, down):  1.558E-08 0.000E+00

     total cpu time spent up to now is        6.5 secs

     total energy              =     -23.49380408 Ry
     estimated scf accuracy    <       0.00000003 Ry

     iteration # 11     ecut=    60.00 Ry     beta= 0.70
     Davidson diagonalization with overlap
     ethr =  4.24E-10,  avg # of iterations =  5.7

     negative rho (up, down):  1.514E-08 0.000E+00

     total cpu time spent up to now is        6.7 secs

     total energy              =     -23.49380415 Ry
     estimated scf accuracy    <       0.00000010 Ry

     iteration # 12     ecut=    60.00 Ry     beta= 0.70
     Davidson diagonalization with overlap
     ethr =  4.24E-10,  avg # of iterations =  1.2

     negative rho (up, down):  1.442E-08 0.000E+00

     total cpu time spent up to now is        6.9 secs

     total energy              =     -23.49380413 Ry
     estimated scf accuracy    <       0.00000005 Ry

     iteration # 13     ecut=    60.00 Ry     beta= 0.70
     Davidson diagonalization with overlap
     ethr =  4.24E-10,  avg # of iterations =  2.6

     negative rho (up, down):  1.454E-08 0.000E+00

     total cpu time spent up to now is        7.0 secs

     total energy              =     -23.49380414 Ry
     estimated scf accuracy    <          1.0E-09 Ry

     iteration # 14     ecut=    60.00 Ry     beta= 0.70
     Davidson diagonalization with overlap
     ethr =  1.30E-11,  avg # of iterations =  7.7

     negative rho (up, down):  1.467E-08 0.000E+00

     total cpu time spent up to now is        7.3 secs

     total energy              =     -23.49380415 Ry
     estimated scf accuracy    <       0.00000001 Ry

     iteration # 15     ecut=    60.00 Ry     beta= 0.70
     Davidson diagonalization with overlap
     ethr =  1.30E-11,  avg # of iterations =  1.3

     negative rho (up, down):  1.488E-08 0.000E+00

     total cpu time spent up to now is        7.4 secs

     total energy              =     -23.49380414 Ry
     estimated scf accuracy    <          7.7E-09 Ry

     iteration # 16     ecut=    60.00 Ry     beta= 0.70
     Davidson diagonalization with overlap
     ethr =  1.30E-11,  avg # of iterations =  4.6

     negative rho (up, down):  1.487E-08 0.000E+00

     total cpu time spent up to now is        7.6 secs

     End of self-consistent calculation

          k = 0.0000 0.0000 0.0000 (  2759 PWs)   bands (ev):

   -18.7298  -8.3299  -1.5241   0.1603   0.1603   3.7012   4.4248   6.5377

          k = 0.0000 0.0962 0.0000 (  2774 PWs)   bands (ev):

   -18.5510  -8.1534  -1.3873  -0.6870  -0.1858   3.9083   4.6460   6.4366

          k = 0.0000 0.1925 0.0000 (  2786 PWs)   bands (ev):

   -18.0165  -7.6297  -2.6999  -1.0128  -0.9728   4.5000   5.3060   6.0752

          k = 0.0000 0.2887 0.0000 (  2772 PWs)   bands (ev):

   -17.1326  -6.7789  -5.1532  -1.8261  -0.5618   5.0438   5.9973   6.4124

          k = 0.0000 0.3849 0.0000 (  2782 PWs)   bands (ev):

   -15.9150  -7.6575  -5.6455  -2.5296  -0.4187   4.8987   7.2283   8.3342

          k = 0.0000 0.4811 0.0000 (  2776 PWs)   bands (ev):

   -14.4165  -9.9801  -4.3534  -2.9814  -0.9908   5.2755   7.3706   8.4368

          k = 0.0000-0.5774 0.0000 (  2804 PWs)   bands (ev):

   -13.2084 -11.4708  -3.4967  -3.1363  -1.6660   6.0838   6.3850   8.4561

          k = 0.0833 0.1443 0.0000 (  2777 PWs)   bands (ev):

   -18.1944  -7.8032  -1.9650  -1.1380  -0.9120   4.3119   5.0869   6.4046

          k = 0.0833 0.2406 0.0000 (  2778 PWs)   bands (ev):

   -17.4850  -7.1151  -4.0016  -1.9770  -0.7065   5.0186   5.9538   6.2466

          k = 0.0833 0.3368 0.0000 (  2785 PWs)   bands (ev):

   -16.4330  -6.3925  -6.1180  -2.8807  -0.3734   5.2776   6.7390   7.2628

          k = 0.0833 0.4330 0.0000 (  2781 PWs)   bands (ev):

   -15.0654  -8.7775  -4.8904  -3.5144  -0.5773   5.2917   7.6670   8.2358

          k = 0.0833 0.5292 0.0000 (  2789 PWs)   bands (ev):

   -13.5218 -10.8620  -3.8775  -3.6248  -1.3786   5.7478   7.2365   8.3863

          k = 0.1667 0.2887 0.0000 (  2782 PWs)   bands (ev):

   -16.6068  -6.2806  -5.5705  -3.5231  -0.3731   5.6496   6.8722   6.9489

          k = 0.1667 0.3849 0.0000 (  2786 PWs)   bands (ev):

   -15.3991  -7.5451  -5.1753  -4.6929  -0.3279   5.8496   6.7301   8.2217

          k = 0.1667 0.4811 0.0000 (  2774 PWs)   bands (ev):

   -13.9154  -9.6568  -5.3333  -3.9094  -0.8642   5.4379   7.3728   9.4566

          k = 0.1667 0.5774 0.0000 (  2774 PWs)   bands (ev):

   -12.7099 -11.0958  -5.5351  -3.0587  -1.5004   5.2532   8.4316   8.4686

          k = 0.2500 0.4330 0.0000 (  2770 PWs)   bands (ev):

   -14.0624  -8.8028  -6.3265  -4.0163  -0.6182   5.3115   7.1279  10.2018

          k = 0.2500 0.5292 0.0000 (  2781 PWs)   bands (ev):

   -12.5490 -10.3530  -7.1255  -2.8513  -1.2825   4.5696   8.4014   9.8501

          k = 0.3333 0.5774 0.0000 (  2778 PWs)   bands (ev):

   -11.2262 -11.2261  -7.9755  -1.9221  -1.9221   4.1125   9.4855   9.4856

     the Fermi energy is    -1.3283 ev

!    total energy              =     -23.49380414 Ry
     estimated scf accuracy    <          3.2E-10 Ry
     smearing contrib. (-TS)   =      -0.00098519 Ry
     internal energy E=F+TS    =     -23.49281896 Ry

     The total energy is F=E-TS. E is the sum of the following terms:
     one-electron contribution =     -78.17906778 Ry
     hartree contribution      =      41.09652896 Ry
     xc contribution           =      -7.80786048 Ry
     ewald contribution        =      21.39758033 Ry

     convergence has been achieved in  16 iterations

     negative rho (up, down):  1.487E-08 0.000E+00

     Forces acting on atoms (cartesian axes, Ry/au):

     atom    1 type  1   force =     0.00000000    0.00000000   -0.37910479
     atom    2 type  1   force =     0.00000000    0.00000000    0.37910479

     Total force =     0.379105     Total SCF correction =     0.000021
     Energy error            =      9.9E-02 Ry
     Gradient error          =      3.8E-01 Ry/Bohr

     number of scf cycles    =   2
     number of bfgs steps    =   1

     energy             old  =     -23.3943228303 Ry
     energy             new  =     -23.4938041448 Ry

     CASE: energy            _new < energy            _old


     WARNING: bfgs curvature condition failed, Theta= 0.612
     uphill step: resetting bfgs history

     new trust radius        =       0.3190019700 bohr
     new conv_thr            =       0.0000000010 Ry


ATOMIC_POSITIONS (crystal)
C                0.3333333330        0.6666666660        0.5000000000    0   0   0
C                0.6666666660        0.3333333330        0.4322270912



     Writing config-only to output data dir ../tmp/gr.save/ :
     XML data file
     NEW-OLD atomic charge density approx. for the potential

     Check: negative core charge=   -0.000004

     negative rho (up, down):  2.684E-05 0.000E+00

     total cpu time spent up to now is        7.6 secs

     Self-consistent Calculation

     iteration #  1     ecut=    60.00 Ry     beta= 0.70
     Davidson diagonalization with overlap
     c_bands:  4 eigenvalues not converged
     c_bands:  5 eigenvalues not converged
     c_bands:  3 eigenvalues not converged
     c_bands:  1 eigenvalues not converged
     c_bands:  1 eigenvalues not converged
     c_bands:  4 eigenvalues not converged
     c_bands:  5 eigenvalues not converged
     c_bands:  1 eigenvalues not converged
     c_bands:  1 eigenvalues not converged
     c_bands:  1 eigenvalues not converged
     c_bands:  3 eigenvalues not converged
     ethr =  1.00E-06,  avg # of iterations = 30.3

     negative rho (up, down):  4.999E-06 0.000E+00

     total cpu time spent up to now is        9.2 secs

     total energy              =     -23.61111626 Ry
     estimated scf accuracy    <       0.02846122 Ry

     iteration #  2     ecut=    60.00 Ry     beta= 0.70
     Davidson diagonalization with overlap
     ethr =  3.56E-04,  avg # of iterations =  2.2

     negative rho (up, down):  2.771E-06 0.000E+00

     total cpu time spent up to now is        9.5 secs

     total energy              =     -23.59907617 Ry
     estimated scf accuracy    <       0.12816212 Ry

     iteration #  3     ecut=    60.00 Ry     beta= 0.70
     Davidson diagonalization with overlap
     ethr =  3.56E-04,  avg # of iterations =  1.6

     negative rho (up, down):  4.645E-06 0.000E+00

     total cpu time spent up to now is       10.5 secs

     total energy              =     -23.62039175 Ry
     estimated scf accuracy    <       0.01188301 Ry

     iteration #  4     ecut=    60.00 Ry     beta= 0.70
     Davidson diagonalization with overlap
     ethr =  1.49E-04,  avg # of iterations =  1.3

     negative rho (up, down):  1.209E-05 0.000E+00

     total cpu time spent up to now is       11.2 secs

     total energy              =     -23.62196841 Ry
     estimated scf accuracy    <       0.00004645 Ry

     iteration #  5     ecut=    60.00 Ry     beta= 0.70
     Davidson diagonalization with overlap
     c_bands:  2 eigenvalues not converged
     c_bands:  1 eigenvalues not converged
     c_bands:  2 eigenvalues not converged
     c_bands:  2 eigenvalues not converged
     c_bands:  1 eigenvalues not converged
     c_bands:  1 eigenvalues not converged
     ethr =  5.81E-07,  avg # of iterations = 16.4

     negative rho (up, down):  1.210E-05 0.000E+00

     total cpu time spent up to now is       14.6 secs

     total energy              =     -23.62265195 Ry
     estimated scf accuracy    <       0.00002850 Ry

     iteration #  6     ecut=    60.00 Ry     beta= 0.70
     Davidson diagonalization with overlap
     ethr =  3.56E-07,  avg # of iterations =  3.5

     negative rho (up, down):  1.198E-05 0.000E+00

     total cpu time spent up to now is       15.2 secs

     total energy              =     -23.62265651 Ry
     estimated scf accuracy    <       0.00002824 Ry

     iteration #  7     ecut=    60.00 Ry     beta= 0.70
     Davidson diagonalization with overlap
     ethr =  3.53E-07,  avg # of iterations =  1.4

     negative rho (up, down):  1.725E-05 0.000E+00

     total cpu time spent up to now is       15.6 secs

     total energy              =     -23.62264742 Ry
     estimated scf accuracy    <       0.00003229 Ry

     iteration #  8     ecut=    60.00 Ry     beta= 0.70
     Davidson diagonalization with overlap
     ethr =  3.53E-07,  avg # of iterations =  2.4

     negative rho (up, down):  1.609E-05 0.000E+00

     total cpu time spent up to now is       16.2 secs

     total energy              =     -23.62265090 Ry
     estimated scf accuracy    <       0.00002155 Ry

     iteration #  9     ecut=    60.00 Ry     beta= 0.70
     Davidson diagonalization with overlap
     ethr =  2.69E-07,  avg # of iterations =  1.1

     negative rho (up, down):  1.553E-05 0.000E+00

     total cpu time spent up to now is       16.8 secs

     total energy              =     -23.62264967 Ry
     estimated scf accuracy    <       0.00000988 Ry

     iteration # 10     ecut=    60.00 Ry     beta= 0.70
     Davidson diagonalization with overlap
     ethr =  1.23E-07,  avg # of iterations =  1.5

     negative rho (up, down):  1.464E-05 0.000E+00

     total cpu time spent up to now is       17.4 secs

     total energy              =     -23.62264798 Ry
     estimated scf accuracy    <       0.00000523 Ry

     iteration # 11     ecut=    60.00 Ry     beta= 0.70
     Davidson diagonalization with overlap
     ethr =  6.54E-08,  avg # of iterations =  2.2

     negative rho (up, down):  1.443E-05 0.000E+00

     total cpu time spent up to now is       17.9 secs

     total energy              =     -23.62264853 Ry
     estimated scf accuracy    <       0.00000055 Ry

     iteration # 12     ecut=    60.00 Ry     beta= 0.70
     Davidson diagonalization with overlap
     ethr =  6.86E-09,  avg # of iterations =  4.5

     negative rho (up, down):  1.429E-05 0.000E+00

     total cpu time spent up to now is       18.5 secs

     total energy              =     -23.62264909 Ry
     estimated scf accuracy    <       0.00000005 Ry

     iteration # 13     ecut=    60.00 Ry     beta= 0.70
     Davidson diagonalization with overlap
     ethr =  5.75E-10,  avg # of iterations =  4.9

     negative rho (up, down):  1.433E-05 0.000E+00

     total cpu time spent up to now is       20.2 secs

     total energy              =     -23.62264914 Ry
     estimated scf accuracy    <       0.00000005 Ry

     iteration # 14     ecut=    60.00 Ry     beta= 0.70
     Davidson diagonalization with overlap
     ethr =  5.75E-10,  avg # of iterations =  1.1

     negative rho (up, down):  1.438E-05 0.000E+00

     total cpu time spent up to now is       20.6 secs

     total energy              =     -23.62264913 Ry
     estimated scf accuracy    <       0.00000001 Ry

     iteration # 15     ecut=    60.00 Ry     beta= 0.70
     Davidson diagonalization with overlap
     ethr =  1.53E-10,  avg # of iterations =  2.5

     negative rho (up, down):  1.438E-05 0.000E+00

     total cpu time spent up to now is       21.7 secs

     total energy              =     -23.62264913 Ry
     estimated scf accuracy    <          1.2E-09 Ry

     iteration # 16     ecut=    60.00 Ry     beta= 0.70
     Davidson diagonalization with overlap
     ethr =  1.44E-11,  avg # of iterations =  5.5

     negative rho (up, down):  1.438E-05 0.000E+00

     total cpu time spent up to now is       22.6 secs

     total energy              =     -23.62264914 Ry
     estimated scf accuracy    <          2.7E-09 Ry

     iteration # 17     ecut=    60.00 Ry     beta= 0.70
     Davidson diagonalization with overlap
     ethr =  1.44E-11,  avg # of iterations =  1.1

     negative rho (up, down):  1.438E-05 0.000E+00

     total cpu time spent up to now is       23.2 secs

     total energy              =     -23.62264914 Ry
     estimated scf accuracy    <          3.5E-09 Ry

     iteration # 18     ecut=    60.00 Ry     beta= 0.70
     Davidson diagonalization with overlap
     ethr =  1.44E-11,  avg # of iterations =  1.1

     negative rho (up, down):  1.438E-05 0.000E+00

     total cpu time spent up to now is       23.6 secs

     total energy              =     -23.62264914 Ry
     estimated scf accuracy    <          4.8E-09 Ry

     iteration # 19     ecut=    60.00 Ry     beta= 0.70
     Davidson diagonalization with overlap
     ethr =  1.44E-11,  avg # of iterations =  1.8

     negative rho (up, down):  1.436E-05 0.000E+00

     total cpu time spent up to now is       24.1 secs

     total energy              =     -23.62264914 Ry
     estimated scf accuracy    <          1.7E-09 Ry

     iteration # 20     ecut=    60.00 Ry     beta= 0.70
     Davidson diagonalization with overlap
     ethr =  1.44E-11,  avg # of iterations =  4.3

     negative rho (up, down):  1.436E-05 0.000E+00

     total cpu time spent up to now is       24.7 secs

     total energy              =     -23.62264914 Ry
     estimated scf accuracy    <          2.9E-09 Ry

     iteration # 21     ecut=    60.00 Ry     beta= 0.70
     Davidson diagonalization with overlap
     ethr =  1.44E-11,  avg # of iterations =  1.0

     negative rho (up, down):  1.437E-05 0.000E+00

     total cpu time spent up to now is       25.5 secs

     End of self-consistent calculation

          k = 0.0000 0.0000 0.0000 (  2759 PWs)   bands (ev):

   -18.7845  -7.8451  -0.4042  -0.4042  -0.1818   3.7455   4.3588   7.4278

          k = 0.0000 0.0962 0.0000 (  2774 PWs)   bands (ev):

   -18.6096  -7.6661  -1.2103  -0.7540  -0.0464   3.9447   4.5813   7.3340

          k = 0.0000 0.1925 0.0000 (  2786 PWs)   bands (ev):

   -18.0863  -7.1365  -3.1447  -1.5551   0.3111   4.5212   5.2427   7.0419

          k = 0.0000 0.2887 0.0000 (  2772 PWs)   bands (ev):

   -17.2207  -6.3125  -5.4871  -2.4274   0.6954   5.3445   6.3271   6.8238

          k = 0.0000 0.3849 0.0000 (  2782 PWs)   bands (ev):

   -16.0271  -7.9978  -5.0945  -3.1472   0.6722   5.9831   7.4125   7.8016

          k = 0.0000 0.4811 0.0000 (  2776 PWs)   bands (ev):

   -14.5525 -10.2677  -3.8006  -3.6093  -0.0633   6.6658   8.1685   9.2816

          k = 0.0000-0.5774 0.0000 (  2804 PWs)   bands (ev):

   -13.3353 -11.7591  -3.7678  -2.9744  -0.7600   7.2108   8.0077  10.7176

          k = 0.0833 0.1443 0.0000 (  2777 PWs)   bands (ev):

   -18.2604  -7.3115  -2.4400  -1.4793   0.2014   4.3343   5.0232   7.3422

          k = 0.0833 0.2406 0.0000 (  2778 PWs)   bands (ev):

   -17.5659  -6.6210  -4.4030  -2.5302   0.5846   5.0631   5.8970   7.2516

          k = 0.0833 0.3368 0.0000 (  2785 PWs)   bands (ev):

   -16.5353  -6.7802  -5.5569  -3.4397   0.7976   5.9116   7.1453   7.4242

          k = 0.0833 0.4330 0.0000 (  2781 PWs)   bands (ev):

   -15.1933  -9.0876  -4.3350  -4.0813   0.4019   6.6232   8.3561   8.6507

          k = 0.0833 0.5292 0.0000 (  2789 PWs)   bands (ev):

   -13.6642 -11.1401  -4.4114  -3.1200  -0.4966   7.4661   8.3160   9.8831

          k = 0.1667 0.2887 0.0000 (  2782 PWs)   bands (ev):

   -16.7059  -6.0721  -5.6272  -4.0335   0.8261   5.8910   6.9533   7.8669

          k = 0.1667 0.3849 0.0000 (  2786 PWs)   bands (ev):

   -15.5222  -7.8789  -5.1866  -4.6173   0.6946   6.8566   7.9533   8.7436

          k = 0.1667 0.4811 0.0000 (  2774 PWs)   bands (ev):

   -14.0636  -9.9408  -5.8134  -3.3532  -0.0074   7.2460   8.6599  10.1690

          k = 0.1667 0.5774 0.0000 (  2774 PWs)   bands (ev):

   -12.8553 -11.3751  -6.0129  -2.5263  -0.6754   7.1524   9.7064  10.4031

          k = 0.2500 0.4330 0.0000 (  2770 PWs)   bands (ev):

   -14.2111  -9.0856  -6.7845  -3.4508   0.2307   7.1523   8.2824  10.4078

          k = 0.2500 0.5292 0.0000 (  2781 PWs)   bands (ev):

   -12.7197 -10.6015  -7.5692  -2.2774  -0.5503   6.4454  10.0628  11.7699

          k = 0.3333 0.5774 0.0000 (  2778 PWs)   bands (ev):

   -11.4252 -11.4250  -8.4245  -1.2959  -1.2959   5.9986  11.7063  11.7063

     the Fermi energy is    -0.7757 ev

!    total energy              =     -23.62264914 Ry
     estimated scf accuracy    <          5.6E-10 Ry
     smearing contrib. (-TS)   =      -0.00051904 Ry
     internal energy E=F+TS    =     -23.62213010 Ry

     The total energy is F=E-TS. E is the sum of the following terms:
     one-electron contribution =     -82.44234835 Ry
     hartree contribution      =      43.31165165 Ry
     xc contribution           =      -7.97376247 Ry
     ewald contribution        =      23.48232908 Ry

     convergence has been achieved in  21 iterations

     negative rho (up, down):  1.437E-05 0.000E+00

     Forces acting on atoms (cartesian axes, Ry/au):

     atom    1 type  1   force =     0.00000000    0.00000000   -0.41737619
     atom    2 type  1   force =     0.00000000    0.00000000    0.41737619

     Total force =     0.417376     Total SCF correction =     0.000023
     Energy error            =      1.3E-01 Ry
     Gradient error          =      4.2E-01 Ry/Bohr

     number of scf cycles    =   3
     number of bfgs steps    =   2

     energy             old  =     -23.4938041448 Ry
     energy             new  =     -23.6226491364 Ry

     CASE: energy            _new < energy            _old


     WARNING: bfgs curvature condition failed, Theta= 0.714
     uphill step: resetting bfgs history

     new trust radius        =       0.4173761885 bohr
     new conv_thr            =       0.0000000010 Ry


ATOMIC_POSITIONS (crystal)
C                0.3333333330        0.6666666660        0.5000000000    0   0   0
C                0.6666666660        0.3333333330        0.4543136879



     Writing config-only to output data dir ../tmp/gr.save/ :
     XML data file
     NEW-OLD atomic charge density approx. for the potential

     Check: negative core charge=   -0.000004

     negative rho (up, down):  3.406E-04 0.000E+00

     total cpu time spent up to now is       25.6 secs

     Self-consistent Calculation

     iteration #  1     ecut=    60.00 Ry     beta= 0.70
     Davidson diagonalization with overlap
     c_bands:  3 eigenvalues not converged
     c_bands:  5 eigenvalues not converged
     c_bands:  5 eigenvalues not converged
     c_bands:  1 eigenvalues not converged
     c_bands:  1 eigenvalues not converged
     c_bands:  5 eigenvalues not converged
     c_bands:  3 eigenvalues not converged
     c_bands:  1 eigenvalues not converged
     c_bands:  1 eigenvalues not converged
     ethr =  1.00E-06,  avg # of iterations = 32.5

     negative rho (up, down):  3.419E-05 0.000E+00

     total cpu time spent up to now is       32.5 secs

     total energy              =     -23.76320996 Ry
     estimated scf accuracy    <       0.03170761 Ry

     iteration #  2     ecut=    60.00 Ry     beta= 0.70
     Davidson diagonalization with overlap
     ethr =  3.96E-04,  avg # of iterations =  2.9

     negative rho (up, down):  2.127E-05 0.000E+00

     total cpu time spent up to now is       33.7 secs

     WARNING: integrated charge=     8.00001455, expected=     8.00000000

     total energy              =     -23.75776775 Ry
     estimated scf accuracy    <       0.13526548 Ry

     iteration #  3     ecut=    60.00 Ry     beta= 0.70
     Davidson diagonalization with overlap
     ethr =  3.96E-04,  avg # of iterations =  1.2

     negative rho (up, down):  2.085E-05 0.000E+00

     total cpu time spent up to now is       34.3 secs

     WARNING: integrated charge=     8.00000484, expected=     8.00000000

     total energy              =     -23.77722078 Ry
     estimated scf accuracy    <       0.00040653 Ry

     iteration #  4     ecut=    60.00 Ry     beta= 0.70
     Davidson diagonalization with overlap
     c_bands:  1 eigenvalues not converged
     ethr =  5.08E-06,  avg # of iterations = 10.8

     negative rho (up, down):  2.714E-05 0.000E+00

     total cpu time spent up to now is       36.2 secs

     WARNING: integrated charge=     8.00000246, expected=     8.00000000

     total energy              =     -23.77825537 Ry
     estimated scf accuracy    <       0.00011785 Ry

     iteration #  5     ecut=    60.00 Ry     beta= 0.70
     Davidson diagonalization with overlap
     ethr =  1.47E-06,  avg # of iterations =  4.3

     negative rho (up, down):  2.934E-05 0.000E+00

     total cpu time spent up to now is       37.2 secs

     total energy              =     -23.77830829 Ry
     estimated scf accuracy    <       0.00003038 Ry

     iteration #  6     ecut=    60.00 Ry     beta= 0.70
     Davidson diagonalization with overlap
     ethr =  3.80E-07,  avg # of iterations =  3.2

     negative rho (up, down):  2.945E-05 0.000E+00

     total cpu time spent up to now is       38.0 secs

     total energy              =     -23.77832321 Ry
     estimated scf accuracy    <       0.00000085 Ry

     iteration #  7     ecut=    60.00 Ry     beta= 0.70
     Davidson diagonalization with overlap
     ethr =  1.07E-08,  avg # of iterations =  6.4

     negative rho (up, down):  2.945E-05 0.000E+00

     total cpu time spent up to now is       44.4 secs

     total energy              =     -23.77832958 Ry
     estimated scf accuracy    <       0.00000068 Ry

     iteration #  8     ecut=    60.00 Ry     beta= 0.70
     Davidson diagonalization with overlap
     ethr =  8.44E-09,  avg # of iterations =  1.8

     negative rho (up, down):  2.951E-05 0.000E+00

     total cpu time spent up to now is       45.7 secs

     total energy              =     -23.77832961 Ry
     estimated scf accuracy    <       0.00000012 Ry

     iteration #  9     ecut=    60.00 Ry     beta= 0.70
     Davidson diagonalization with overlap
     ethr =  1.46E-09,  avg # of iterations =  3.8

     negative rho (up, down):  2.950E-05 0.000E+00

     total cpu time spent up to now is       48.3 secs

     total energy              =     -23.77832967 Ry
     estimated scf accuracy    <          2.2E-09 Ry

     iteration # 10     ecut=    60.00 Ry     beta= 0.70
     Davidson diagonalization with overlap
     ethr =  2.75E-11,  avg # of iterations =  6.3

     negative rho (up, down):  2.950E-05 0.000E+00

     total cpu time spent up to now is       50.3 secs

     total energy              =     -23.77832969 Ry
     estimated scf accuracy    <          5.6E-09 Ry

     iteration # 11     ecut=    60.00 Ry     beta= 0.70
     Davidson diagonalization with overlap
     ethr =  2.75E-11,  avg # of iterations =  1.4

     negative rho (up, down):  2.948E-05 0.000E+00

     total cpu time spent up to now is       52.1 secs

     total energy              =     -23.77832969 Ry
     estimated scf accuracy    <          6.8E-09 Ry

     iteration # 12     ecut=    60.00 Ry     beta= 0.70
     Davidson diagonalization with overlap
     ethr =  2.75E-11,  avg # of iterations =  4.6

     negative rho (up, down):  2.947E-05 0.000E+00

     total cpu time spent up to now is       54.4 secs

     total energy              =     -23.77832969 Ry
     estimated scf accuracy    <          2.9E-09 Ry

     iteration # 13     ecut=    60.00 Ry     beta= 0.70
     Davidson diagonalization with overlap
     ethr =  2.75E-11,  avg # of iterations =  1.1

     negative rho (up, down):  2.947E-05 0.000E+00

     total cpu time spent up to now is       55.6 secs

     total energy              =     -23.77832969 Ry
     estimated scf accuracy    <          2.1E-09 Ry

     iteration # 14     ecut=    60.00 Ry     beta= 0.70
     Davidson diagonalization with overlap
     ethr =  2.66E-11,  avg # of iterations =  1.1

     negative rho (up, down):  2.947E-05 0.000E+00

     total cpu time spent up to now is       56.3 secs

     End of self-consistent calculation

          k = 0.0000 0.0000 0.0000 (  2759 PWs)   bands (ev):

   -19.4328  -7.8290  -1.8820  -1.8820   1.3296   4.0823   4.2750   7.7430

          k = 0.0000 0.0962 0.0000 (  2774 PWs)   bands (ev):

   -19.2632  -7.6466  -2.6151  -2.2293   1.4864   4.2599   4.4989   7.6886

          k = 0.0000 0.1925 0.0000 (  2786 PWs)   bands (ev):

   -18.7558  -7.1142  -4.4025  -3.0328   1.8962   4.7596   5.1628   7.4749

          k = 0.0000 0.2887 0.0000 (  2772 PWs)   bands (ev):

   -17.9164  -6.8646  -6.0167  -3.9152   2.2756   5.4687   6.2535   7.3520

          k = 0.0000 0.3849 0.0000 (  2782 PWs)   bands (ev):

   -16.7580  -9.0716  -4.9579  -4.6463   1.9832   6.3966   7.5090   7.7749

          k = 0.0000 0.4811 0.0000 (  2776 PWs)   bands (ev):

   -15.3196 -11.2601  -5.1164  -3.6312   0.8920   7.1911   8.1972   9.5508

          k = 0.0000-0.5774 0.0000 (  2804 PWs)   bands (ev):

   -14.0861 -12.7531  -5.2776  -2.8157   0.0868   7.1984   9.6099  10.5703

          k = 0.0833 0.1443 0.0000 (  2777 PWs)   bands (ev):

   -18.9247  -7.2879  -3.7508  -2.9349   1.7719   4.6005   4.9429   7.7481

          k = 0.0833 0.2406 0.0000 (  2778 PWs)   bands (ev):

   -18.2512  -6.6447  -5.5285  -3.9653   2.1876   5.2166   5.8207   7.7455

          k = 0.0833 0.3368 0.0000 (  2785 PWs)   bands (ev):

   -17.2517  -7.9034  -5.4437  -4.8625   2.2579   6.0460   7.1106   7.9681

          k = 0.0833 0.4330 0.0000 (  2781 PWs)   bands (ev):

   -15.9476 -10.1171  -5.5165  -4.1685   1.4879   7.2607   8.2725   8.7446

          k = 0.0833 0.5292 0.0000 (  2789 PWs)   bands (ev):

   -14.4415 -12.1171  -5.8454  -2.9392   0.3406   7.9919   9.1520  10.3036

          k = 0.1667 0.2887 0.0000 (  2782 PWs)   bands (ev):

   -17.4174  -7.1653  -5.5690  -5.4043   2.3339   5.9533   6.8942   8.3958

          k = 0.1667 0.3849 0.0000 (  2786 PWs)   bands (ev):

   -16.2691  -8.9458  -6.5207  -4.4535   1.8795   7.0920   8.2864   9.3612

          k = 0.1667 0.4811 0.0000 (  2774 PWs)   bands (ev):

   -14.8487 -10.9312  -7.1293  -3.1467   0.8324   8.5982   9.4417  10.1324

          k = 0.1667 0.5774 0.0000 (  2774 PWs)   bands (ev):

   -13.6337 -12.3594  -7.3233  -2.3137   0.0472   9.1021   9.9837  11.3836

          k = 0.2500 0.4330 0.0000 (  2770 PWs)   bands (ev):

   -14.9964 -10.0741  -8.0646  -3.2366   1.0785   8.6656   8.8708  10.8460

          k = 0.2500 0.5292 0.0000 (  2781 PWs)   bands (ev):

   -13.5383 -11.5388  -8.8216  -2.0019   0.0526   8.4180  10.7335  12.5060

          k = 0.3333 0.5774 0.0000 (  2778 PWs)   bands (ev):

   -12.2844 -12.2843  -9.6868  -0.8928  -0.8928   8.0005  12.8943  12.8947

     the Fermi energy is    -0.8549 ev

!    total energy              =     -23.77832969 Ry
     estimated scf accuracy    <          3.9E-10 Ry
     smearing contrib. (-TS)   =      -0.00018225 Ry
     internal energy E=F+TS    =     -23.77814744 Ry

     The total energy is F=E-TS. E is the sum of the following terms:
     one-electron contribution =     -86.78931545 Ry
     hartree contribution      =      45.36798617 Ry
     xc contribution           =      -8.14165127 Ry
     ewald contribution        =      25.78483312 Ry

     convergence has been achieved in  14 iterations

     negative rho (up, down):  2.947E-05 0.000E+00

     Forces acting on atoms (cartesian axes, Ry/au):

     atom    1 type  1   force =     0.00000000    0.00000000   -0.30686626
     atom    2 type  1   force =     0.00000000    0.00000000    0.30686626

     Total force =     0.306866     Total SCF correction =     0.000023
     Energy error            =      1.6E-01 Ry
     Gradient error          =      3.1E-01 Ry/Bohr

     number of scf cycles    =   4
     number of bfgs steps    =   3

     energy             old  =     -23.6226491364 Ry
     energy             new  =     -23.7783296870 Ry

     CASE: energy            _new < energy            _old

     new trust radius        =       0.4591138074 bohr
     new conv_thr            =       0.0000000010 Ry


ATOMIC_POSITIONS (crystal)
C                0.3333333330        0.6666666660        0.5000000000    0   0   0
C                0.6666666660        0.3333333330        0.4786089443



     Writing config-only to output data dir ../tmp/gr.save/ :
     XML data file
     NEW-OLD atomic charge density approx. for the potential

     Check: negative core charge=   -0.000004

     negative rho (up, down):  3.307E-04 0.000E+00

     total cpu time spent up to now is       56.5 secs

     Self-consistent Calculation

     iteration #  1     ecut=    60.00 Ry     beta= 0.70
     Davidson diagonalization with overlap
     c_bands:  5 eigenvalues not converged
     c_bands:  5 eigenvalues not converged
     c_bands:  1 eigenvalues not converged
     c_bands:  1 eigenvalues not converged
     c_bands:  1 eigenvalues not converged
     c_bands:  1 eigenvalues not converged
     c_bands:  1 eigenvalues not converged
     c_bands:  1 eigenvalues not converged
     ethr =  1.00E-06,  avg # of iterations = 34.1

     negative rho (up, down):  4.983E-05 0.000E+00

     total cpu time spent up to now is       74.7 secs

     total energy              =     -23.87226815 Ry
     estimated scf accuracy    <       0.02569194 Ry

     iteration #  2     ecut=    60.00 Ry     beta= 0.70
     Davidson diagonalization with overlap
     ethr =  3.21E-04,  avg # of iterations =  2.2

     negative rho (up, down):  3.721E-05 0.000E+00

     total cpu time spent up to now is       80.3 secs

     total energy              =     -23.87497250 Ry
     estimated scf accuracy    <       0.02371007 Ry

     iteration #  3     ecut=    60.00 Ry     beta= 0.70
     Davidson diagonalization with overlap
     ethr =  2.96E-04,  avg # of iterations =  1.1

     negative rho (up, down):  4.076E-05 0.000E+00

     total cpu time spent up to now is       81.8 secs

     total energy              =     -23.88043648 Ry
     estimated scf accuracy    <       0.00089690 Ry

     iteration #  4     ecut=    60.00 Ry     beta= 0.70
     Davidson diagonalization with overlap
     ethr =  1.12E-05,  avg # of iterations =  6.8

     negative rho (up, down):  4.473E-05 0.000E+00

     total cpu time spent up to now is       85.0 secs

     total energy              =     -23.88119017 Ry
     estimated scf accuracy    <       0.00007831 Ry

     iteration #  5     ecut=    60.00 Ry     beta= 0.70
     Davidson diagonalization with overlap
     ethr =  9.79E-07,  avg # of iterations =  6.8

     negative rho (up, down):  4.750E-05 0.000E+00

     total cpu time spent up to now is       88.8 secs

     total energy              =     -23.88130256 Ry
     estimated scf accuracy    <       0.00001005 Ry

     iteration #  6     ecut=    60.00 Ry     beta= 0.70
     Davidson diagonalization with overlap
     ethr =  1.26E-07,  avg # of iterations =  4.8

     negative rho (up, down):  4.758E-05 0.000E+00

     total cpu time spent up to now is       91.6 secs

     total energy              =     -23.88131125 Ry
     estimated scf accuracy    <       0.00000404 Ry

     iteration #  7     ecut=    60.00 Ry     beta= 0.70
     Davidson diagonalization with overlap
     ethr =  5.05E-08,  avg # of iterations =  2.2

     negative rho (up, down):  4.752E-05 0.000E+00

     total cpu time spent up to now is       92.7 secs

     total energy              =     -23.88131199 Ry
     estimated scf accuracy    <       0.00000011 Ry

     iteration #  8     ecut=    60.00 Ry     beta= 0.70
     Davidson diagonalization with overlap
     ethr =  1.38E-09,  avg # of iterations =  6.0

     negative rho (up, down):  4.762E-05 0.000E+00

     total cpu time spent up to now is       96.1 secs

     total energy              =     -23.88131265 Ry
     estimated scf accuracy    <       0.00000031 Ry

     iteration #  9     ecut=    60.00 Ry     beta= 0.70
     Davidson diagonalization with overlap
     ethr =  1.38E-09,  avg # of iterations =  2.0

     negative rho (up, down):  4.764E-05 0.000E+00

     total cpu time spent up to now is       98.6 secs

     total energy              =     -23.88131267 Ry
     estimated scf accuracy    <       0.00000003 Ry

     iteration # 10     ecut=    60.00 Ry     beta= 0.70
     Davidson diagonalization with overlap
     ethr =  3.21E-10,  avg # of iterations =  4.4

     negative rho (up, down):  4.764E-05 0.000E+00

     total cpu time spent up to now is      102.3 secs

     total energy              =     -23.88131270 Ry
     estimated scf accuracy    <          6.1E-09 Ry

     iteration # 11     ecut=    60.00 Ry     beta= 0.70
     Davidson diagonalization with overlap
     ethr =  7.56E-11,  avg # of iterations =  2.2

     negative rho (up, down):  4.763E-05 0.000E+00

     total cpu time spent up to now is      104.2 secs

     total energy              =     -23.88131270 Ry
     estimated scf accuracy    <          5.4E-09 Ry

     iteration # 12     ecut=    60.00 Ry     beta= 0.70
     Davidson diagonalization with overlap
     ethr =  6.72E-11,  avg # of iterations =  1.7

     negative rho (up, down):  4.762E-05 0.000E+00

     total cpu time spent up to now is      105.7 secs

     End of self-consistent calculation

          k = 0.0000 0.0000 0.0000 (  2759 PWs)   bands (ev):

   -19.8868  -8.0118  -3.1399  -3.1399   2.3441   4.2152   4.8409   7.8475

          k = 0.0000 0.0962 0.0000 (  2774 PWs)   bands (ev):

   -19.7215  -7.8208  -3.8078  -3.4813   2.5553   4.4382   5.0295   7.8838

          k = 0.0000 0.1925 0.0000 (  2786 PWs)   bands (ev):

   -19.2271  -7.2633  -5.4681  -4.2784   3.1706   5.1022   5.5330   7.7437

          k = 0.0000 0.2887 0.0000 (  2772 PWs)   bands (ev):

   -18.4093  -7.6778  -6.2555  -5.1609   4.0139   5.8388   6.2185   7.5937

          k = 0.0000 0.3849 0.0000 (  2782 PWs)   bands (ev):

   -17.2802  -9.8872  -5.8955  -5.0359   3.6095   6.3727   7.3600   7.7894

          k = 0.0000 0.4811 0.0000 (  2776 PWs)   bands (ev):

   -15.8726 -12.0094  -6.3688  -3.6405   1.9177   7.1146   8.1800   9.6719

          k = 0.0000-0.5774 0.0000 (  2804 PWs)   bands (ev):

   -14.6134 -13.5154  -6.5313  -2.8056   0.9175   7.0205  10.3687  10.6173

          k = 0.0833 0.1443 0.0000 (  2777 PWs)   bands (ev):

   -19.3916  -7.4448  -4.8595  -4.1667   2.9699   4.8822   5.3809   8.0630

          k = 0.0833 0.2406 0.0000 (  2778 PWs)   bands (ev):

   -18.7355  -6.8877  -6.4062  -5.1737   3.7304   5.7544   5.8643   7.8963

          k = 0.0833 0.3368 0.0000 (  2785 PWs)   bands (ev):

   -17.7618  -8.7538  -6.0729  -5.5434   4.1161   5.9875   7.0764   8.2308

          k = 0.0833 0.4330 0.0000 (  2781 PWs)   bands (ev):

   -16.4899 -10.8978  -6.7064  -4.2012   2.7358   7.3532   7.9642   8.8042

          k = 0.0833 0.5292 0.0000 (  2789 PWs)   bands (ev):

   -15.0015 -12.8555  -7.0355  -2.9154   1.1842   7.7883   9.4518  10.7422

          k = 0.1667 0.2887 0.0000 (  2782 PWs)   bands (ev):

   -17.9234  -8.0132  -6.5565  -5.7145   4.2213   5.9730   6.8474   8.2754

          k = 0.1667 0.3849 0.0000 (  2786 PWs)   bands (ev):

   -16.8050  -9.7508  -7.6300  -4.4992   3.3101   6.9834   8.3136   9.5499

          k = 0.1667 0.4811 0.0000 (  2774 PWs)   bands (ev):

   -15.4169 -11.6796  -8.2151  -3.1068   1.7214   8.8396   9.7448   9.9728

          k = 0.1667 0.5774 0.0000 (  2774 PWs)   bands (ev):

   -14.1849 -13.1150  -8.4024  -2.2323   0.7437   9.6581  10.5592  11.2520

          k = 0.2500 0.4330 0.0000 (  2770 PWs)   bands (ev):

   -15.5650 -10.8077  -9.1300  -3.1919   1.9995   8.6532   9.6350  11.2144

          k = 0.2500 0.5292 0.0000 (  2781 PWs)   bands (ev):

   -14.1323 -12.2389  -9.8521  -1.8494   0.6331   9.9876  10.7904  12.0101

          k = 0.3333 0.5774 0.0000 (  2778 PWs)   bands (ev):

   -12.9059 -12.9059 -10.7418  -0.5636  -0.5635   9.6597  12.6407  12.6410

     the Fermi energy is    -0.5256 ev

!    total energy              =     -23.88131270 Ry
     estimated scf accuracy    <          2.2E-10 Ry
     smearing contrib. (-TS)   =      -0.00018232 Ry
     internal energy E=F+TS    =     -23.88113038 Ry

     The total energy is F=E-TS. E is the sum of the following terms:
     one-electron contribution =     -89.88136859 Ry
     hartree contribution      =      46.80531196 Ry
     xc contribution           =      -8.26717031 Ry
     ewald contribution        =      27.46209656 Ry

     convergence has been achieved in  12 iterations

     negative rho (up, down):  4.762E-05 0.000E+00

     Forces acting on atoms (cartesian axes, Ry/au):

     atom    1 type  1   force =     0.00000000    0.00000000   -0.14199489
     atom    2 type  1   force =     0.00000000    0.00000000    0.14199489

     Total force =     0.141995     Total SCF correction =     0.000031
     Energy error            =      1.0E-01 Ry
     Gradient error          =      1.4E-01 Ry/Bohr

     number of scf cycles    =   5
     number of bfgs steps    =   4

     energy             old  =     -23.7783296870 Ry
     energy             new  =     -23.8813127011 Ry

     CASE: energy            _new < energy            _old

     new trust radius        =       0.3954101790 bohr
     new conv_thr            =       0.0000000010 Ry


ATOMIC_POSITIONS (crystal)
C                0.3333333330        0.6666666660        0.5000000000    0   0   0
C                0.6666666660        0.3333333330        0.4995331499



     Writing config-only to output data dir ../tmp/gr.save/ :
     XML data file
     NEW-OLD atomic charge density approx. for the potential

     Check: negative core charge=   -0.000004

     negative rho (up, down):  1.913E-04 0.000E+00

     total cpu time spent up to now is      106.1 secs

     Self-consistent Calculation

     iteration #  1     ecut=    60.00 Ry     beta= 0.70
     Davidson diagonalization with overlap
     c_bands:  4 eigenvalues not converged
     c_bands:  3 eigenvalues not converged
     c_bands:  1 eigenvalues not converged
     c_bands:  1 eigenvalues not converged
     c_bands:  1 eigenvalues not converged
     c_bands:  1 eigenvalues not converged
     c_bands:  1 eigenvalues not converged
     ethr =  1.00E-06,  avg # of iterations = 35.9

     negative rho (up, down):  4.859E-05 0.000E+00

     total cpu time spent up to now is      126.0 secs

     total energy              =     -23.90473808 Ry
     estimated scf accuracy    <       0.01710746 Ry

     iteration #  2     ecut=    60.00 Ry     beta= 0.70
     Davidson diagonalization with overlap
     ethr =  2.14E-04,  avg # of iterations =  2.3

     negative rho (up, down):  4.095E-05 0.000E+00

     total cpu time spent up to now is      128.1 secs

     total energy              =     -23.90853379 Ry
     estimated scf accuracy    <       0.00432501 Ry

     iteration #  3     ecut=    60.00 Ry     beta= 0.70
     Davidson diagonalization with overlap
     ethr =  5.41E-05,  avg # of iterations =  1.9

     negative rho (up, down):  4.943E-05 0.000E+00

     total cpu time spent up to now is      130.0 secs

     total energy              =     -23.90961336 Ry
     estimated scf accuracy    <       0.00007339 Ry

     iteration #  4     ecut=    60.00 Ry     beta= 0.70
     Davidson diagonalization with overlap
     c_bands:  1 eigenvalues not converged
     c_bands:  2 eigenvalues not converged
     c_bands:  1 eigenvalues not converged
     c_bands:  1 eigenvalues not converged
     ethr =  9.17E-07,  avg # of iterations = 12.9

     negative rho (up, down):  5.225E-05 0.000E+00

     total cpu time spent up to now is      136.3 secs

     total energy              =     -23.90988757 Ry
     estimated scf accuracy    <       0.00003650 Ry

     iteration #  5     ecut=    60.00 Ry     beta= 0.70
     Davidson diagonalization with overlap
     c_bands:  1 eigenvalues not converged
     ethr =  4.56E-07,  avg # of iterations =  3.7

     negative rho (up, down):  5.417E-05 0.000E+00

     total cpu time spent up to now is      137.7 secs

     total energy              =     -23.90989520 Ry
     estimated scf accuracy    <       0.00000107 Ry

     iteration #  6     ecut=    60.00 Ry     beta= 0.70
     Davidson diagonalization with overlap
     ethr =  1.34E-08,  avg # of iterations =  6.4

     negative rho (up, down):  5.426E-05 0.000E+00

     total cpu time spent up to now is      140.0 secs

     total energy              =     -23.90989962 Ry
     estimated scf accuracy    <       0.00000091 Ry

     iteration #  7     ecut=    60.00 Ry     beta= 0.70
     Davidson diagonalization with overlap
     ethr =  1.14E-08,  avg # of iterations =  1.3

     negative rho (up, down):  5.423E-05 0.000E+00

     total cpu time spent up to now is      140.8 secs

     total energy              =     -23.90989949 Ry
     estimated scf accuracy    <       0.00000028 Ry

     iteration #  8     ecut=    60.00 Ry     beta= 0.70
     Davidson diagonalization with overlap
     ethr =  3.52E-09,  avg # of iterations =  4.2

     negative rho (up, down):  5.435E-05 0.000E+00

     total cpu time spent up to now is      142.2 secs

     total energy              =     -23.90989960 Ry
     estimated scf accuracy    <       0.00000027 Ry

     iteration #  9     ecut=    60.00 Ry     beta= 0.70
     Davidson diagonalization with overlap
     ethr =  3.37E-09,  avg # of iterations =  1.5

     negative rho (up, down):  5.435E-05 0.000E+00

     total cpu time spent up to now is      143.3 secs

     total energy              =     -23.90989964 Ry
     estimated scf accuracy    <          5.4E-09 Ry

     iteration # 10     ecut=    60.00 Ry     beta= 0.70
     Davidson diagonalization with overlap
     ethr =  6.77E-11,  avg # of iterations =  5.2

     negative rho (up, down):  5.434E-05 0.000E+00

     total cpu time spent up to now is      145.3 secs

     total energy              =     -23.90989967 Ry
     estimated scf accuracy    <          2.9E-09 Ry

     iteration # 11     ecut=    60.00 Ry     beta= 0.70
     Davidson diagonalization with overlap
     ethr =  3.58E-11,  avg # of iterations =  1.1

     negative rho (up, down):  5.434E-05 0.000E+00

     total cpu time spent up to now is      146.3 secs

     End of self-consistent calculation

          k = 0.0000 0.0000 0.0000 (  2759 PWs)   bands (ev):

   -19.9924  -8.0922  -3.5171  -3.5171   2.5507   4.1976   5.1900   7.8799

          k = 0.0000 0.0962 0.0000 (  2774 PWs)   bands (ev):

   -19.8283  -7.8956  -4.1665  -3.8563   2.7754   4.4199   5.4105   7.9506

          k = 0.0000 0.1925 0.0000 (  2786 PWs)   bands (ev):

   -19.3378  -7.3113  -5.8023  -4.6503   3.4497   5.0839   6.0714   7.9134

          k = 0.0000 0.2887 0.0000 (  2772 PWs)   bands (ev):

   -18.5265  -7.9001  -6.3582  -5.5319   4.5716   6.1387   6.8840   7.1464

          k = 0.0000 0.3849 0.0000 (  2782 PWs)   bands (ev):

   -17.4065 -10.1041  -6.2668  -5.0869   4.4789   6.1341   7.2981   7.7600

          k = 0.0000 0.4811 0.0000 (  2776 PWs)   bands (ev):

   -16.0084 -12.2064  -6.7406  -3.6605   2.3370   7.0523   8.1581   9.7013

          k = 0.0000-0.5774 0.0000 (  2804 PWs)   bands (ev):

   -14.7379 -13.7197  -6.9034  -2.8134   1.2356   6.9753  10.5006  10.6344

          k = 0.0833 0.1443 0.0000 (  2777 PWs)   bands (ev):

   -19.5010  -7.5051  -5.1986  -4.5349   3.2251   4.8634   5.8524   8.2531

          k = 0.0833 0.2406 0.0000 (  2778 PWs)   bands (ev):

   -18.8501  -6.9072  -6.7350  -5.5345   4.1238   5.7429   6.7344   7.6790

          k = 0.0833 0.3368 0.0000 (  2785 PWs)   bands (ev):

   -17.8843  -8.9803  -6.4221  -5.6165   5.4574   5.5077   7.0881   7.9613

          k = 0.0833 0.4330 0.0000 (  2781 PWs)   bands (ev):

   -16.6223 -11.1046  -7.0578  -4.2335   3.2873   7.2433   7.8917   8.8090

          k = 0.0833 0.5292 0.0000 (  2789 PWs)   bands (ev):

   -15.1391 -13.0498  -7.3867  -2.9206   1.5132   7.7122   9.4727  10.8721

          k = 0.1667 0.2887 0.0000 (  2782 PWs)   bands (ev):

   -18.0447  -8.2355  -6.8988  -5.7958   5.2453   5.9536   6.8320   7.8432

          k = 0.1667 0.3849 0.0000 (  2786 PWs)   bands (ev):

   -16.9355  -9.9635  -7.9558  -4.5396   3.9993   6.8095   8.3160   9.3531

          k = 0.1667 0.4811 0.0000 (  2774 PWs)   bands (ev):

   -15.5574 -11.8770  -8.5316  -3.1092   2.0814   8.7949   9.6162  10.0696

          k = 0.1667 0.5774 0.0000 (  2774 PWs)   bands (ev):

   -14.3169 -13.3183  -8.7163  -2.2138   1.0099   9.5190  11.0920  11.2447

          k = 0.2500 0.4330 0.0000 (  2770 PWs)   bands (ev):

   -15.7056 -10.9964  -9.4429  -3.1935   2.3806   8.5788   9.7458  11.0935

          k = 0.2500 0.5292 0.0000 (  2781 PWs)   bands (ev):

   -14.2801 -12.4209 -10.1506  -1.8041   0.8563  10.4618  10.7164  11.7764

          k = 0.3333 0.5774 0.0000 (  2778 PWs)   bands (ev):

   -13.0598 -13.0598 -11.0533  -0.4447  -0.4447  10.1786  12.4087  12.4087

     the Fermi energy is    -0.4068 ev

!    total energy              =     -23.90989967 Ry
     estimated scf accuracy    <          9.4E-10 Ry
     smearing contrib. (-TS)   =      -0.00018232 Ry
     internal energy E=F+TS    =     -23.90971734 Ry

     The total energy is F=E-TS. E is the sum of the following terms:
     one-electron contribution =     -90.80401224 Ry
     hartree contribution      =      47.23781058 Ry
     xc contribution           =      -8.30632296 Ry
     ewald contribution        =      27.96280727 Ry

     convergence has been achieved in  11 iterations

     negative rho (up, down):  5.434E-05 0.000E+00

     Forces acting on atoms (cartesian axes, Ry/au):

     atom    1 type  1   force =     0.00000000    0.00000000   -0.00307702
     atom    2 type  1   force =     0.00000000    0.00000000    0.00307702

     Total force =     0.003077     Total SCF correction =     0.000080
     Energy error            =      2.9E-02 Ry
     Gradient error          =      3.1E-03 Ry/Bohr

     number of scf cycles    =   6
     number of bfgs steps    =   5

     energy             old  =     -23.8813127011 Ry
     energy             new  =     -23.9098996676 Ry

     CASE: energy            _new < energy            _old

     new trust radius        =       0.0087583152 bohr
     new conv_thr            =       0.0000000003 Ry


ATOMIC_POSITIONS (crystal)
C                0.3333333330        0.6666666660        0.5000000000    0   0   0
C                0.6666666660        0.3333333330        0.4999966200



     Writing config-only to output data dir ../tmp/gr.save/ :
     XML data file
     NEW-OLD atomic charge density approx. for the potential

     Check: negative core charge=   -0.000004

     negative rho (up, down):  5.459E-05 0.000E+00

     total cpu time spent up to now is      146.4 secs

     Self-consistent Calculation

     iteration #  1     ecut=    60.00 Ry     beta= 0.70
     Davidson diagonalization with overlap
     ethr =  1.00E-06,  avg # of iterations =  3.3

     Threshold (ethr) on eigenvalues was too large:
     Diagonalizing with lowered threshold

     Davidson diagonalization with overlap
     ethr =  6.22E-08,  avg # of iterations =  4.6

     negative rho (up, down):  5.432E-05 0.000E+00

     total cpu time spent up to now is      149.5 secs

     total energy              =     -23.90991061 Ry
     estimated scf accuracy    <       0.00000831 Ry

     iteration #  2     ecut=    60.00 Ry     beta= 0.70
     Davidson diagonalization with overlap
     ethr =  1.04E-07,  avg # of iterations =  2.0

     negative rho (up, down):  5.434E-05 0.000E+00

     total cpu time spent up to now is      150.9 secs

     total energy              =     -23.90991239 Ry
     estimated scf accuracy    <       0.00000228 Ry

     iteration #  3     ecut=    60.00 Ry     beta= 0.70
     Davidson diagonalization with overlap
     ethr =  2.85E-08,  avg # of iterations =  1.6

     negative rho (up, down):  5.437E-05 0.000E+00

     total cpu time spent up to now is      152.3 secs

     total energy              =     -23.90991297 Ry
     estimated scf accuracy    <       0.00000004 Ry

     iteration #  4     ecut=    60.00 Ry     beta= 0.70
     Davidson diagonalization with overlap
     ethr =  5.53E-10,  avg # of iterations =  6.3

     negative rho (up, down):  5.436E-05 0.000E+00

     total cpu time spent up to now is      154.3 secs

     total energy              =     -23.90991322 Ry
     estimated scf accuracy    <          5.8E-09 Ry

     iteration #  5     ecut=    60.00 Ry     beta= 0.70
     Davidson diagonalization with overlap
     ethr =  7.20E-11,  avg # of iterations =  3.7

     negative rho (up, down):  5.435E-05 0.000E+00

     total cpu time spent up to now is      155.4 secs

     total energy              =     -23.90991322 Ry
     estimated scf accuracy    <          7.8E-10 Ry

     iteration #  6     ecut=    60.00 Ry     beta= 0.70
     Davidson diagonalization with overlap
     ethr =  9.74E-12,  avg # of iterations =  4.3

     negative rho (up, down):  5.435E-05 0.000E+00

     total cpu time spent up to now is      156.7 secs

     End of self-consistent calculation

          k = 0.0000 0.0000 0.0000 (  2759 PWs)   bands (ev):

   -19.9923  -8.0922  -3.5172  -3.5172   2.5510   4.1978   5.1904   7.8800

          k = 0.0000 0.0962 0.0000 (  2774 PWs)   bands (ev):

   -19.8283  -7.8956  -4.1666  -3.8563   2.7758   4.4201   5.4109   7.9506

          k = 0.0000 0.1925 0.0000 (  2786 PWs)   bands (ev):

   -19.3377  -7.3112  -5.8023  -4.6504   3.4500   5.0842   6.0720   7.9136

          k = 0.0000 0.2887 0.0000 (  2772 PWs)   bands (ev):

   -18.5264  -7.9001  -6.3582  -5.5319   4.5721   6.1390   6.8872   7.1429

          k = 0.0000 0.3849 0.0000 (  2782 PWs)   bands (ev):

   -17.4064 -10.1041  -6.2668  -5.0869   4.4795   6.1341   7.2981   7.7602

          k = 0.0000 0.4811 0.0000 (  2776 PWs)   bands (ev):

   -16.0084 -12.2064  -6.7407  -3.6605   2.3373   7.0524   8.1583   9.7015

          k = 0.0000-0.5774 0.0000 (  2804 PWs)   bands (ev):

   -14.7379 -13.7197  -6.9034  -2.8133   1.2359   6.9754  10.5008  10.6343

          k = 0.0833 0.1443 0.0000 (  2777 PWs)   bands (ev):

   -19.5009  -7.5050  -5.1986  -4.5350   3.2255   4.8637   5.8529   8.2526

          k = 0.0833 0.2406 0.0000 (  2778 PWs)   bands (ev):

   -18.8500  -6.9071  -6.7351  -5.5346   4.1242   5.7432   6.7355   7.6786

          k = 0.0833 0.3368 0.0000 (  2785 PWs)   bands (ev):

   -17.8843  -8.9803  -6.4222  -5.6165   5.4688   5.4972   7.0884   7.9611

          k = 0.0833 0.4330 0.0000 (  2781 PWs)   bands (ev):

   -16.6223 -11.1046  -7.0579  -4.2334   3.2877   7.2435   7.8918   8.8091

          k = 0.0833 0.5292 0.0000 (  2789 PWs)   bands (ev):

   -15.1391 -13.0498  -7.3868  -2.9205   1.5134   7.7123   9.4729  10.8723

          k = 0.1667 0.2887 0.0000 (  2782 PWs)   bands (ev):

   -18.0446  -8.2355  -6.8988  -5.7957   5.2462   5.9536   6.8322   7.8430

          k = 0.1667 0.3849 0.0000 (  2786 PWs)   bands (ev):

   -16.9355  -9.9635  -7.9559  -4.5396   3.9997   6.8097   8.3161   9.3531

          k = 0.1667 0.4811 0.0000 (  2774 PWs)   bands (ev):

   -15.5574 -11.8770  -8.5316  -3.1091   2.0816   8.7951   9.6162  10.0698

          k = 0.1667 0.5774 0.0000 (  2774 PWs)   bands (ev):

   -14.3168 -13.3183  -8.7164  -2.2138   1.0101   9.5190  11.0942  11.2439

          k = 0.2500 0.4330 0.0000 (  2770 PWs)   bands (ev):

   -15.7056 -10.9964  -9.4430  -3.1935   2.3809   8.5790   9.7460  11.0932

          k = 0.2500 0.5292 0.0000 (  2781 PWs)   bands (ev):

   -14.2801 -12.4209 -10.1506  -1.8040   0.8565  10.4621  10.7165  11.7764

          k = 0.3333 0.5774 0.0000 (  2778 PWs)   bands (ev):

   -13.0598 -13.0598 -11.0533  -0.4446  -0.4445  10.1789  12.4087  12.4087

     the Fermi energy is    -0.4066 ev

!    total energy              =     -23.90991322 Ry
     estimated scf accuracy    <          8.8E-11 Ry
     smearing contrib. (-TS)   =      -0.00018232 Ry
     internal energy E=F+TS    =     -23.90973090 Ry

     The total energy is F=E-TS. E is the sum of the following terms:
     one-electron contribution =     -90.80442393 Ry
     hartree contribution      =      47.23798047 Ry
     xc contribution           =      -8.30633669 Ry
     ewald contribution        =      27.96304926 Ry

     convergence has been achieved in   6 iterations

     negative rho (up, down):  5.435E-05 0.000E+00

     Forces acting on atoms (cartesian axes, Ry/au):

     atom    1 type  1   force =     0.00000000    0.00000000   -0.00002235
     atom    2 type  1   force =     0.00000000    0.00000000    0.00002235

     Total force =     0.000022     Total SCF correction =     0.000005
     SCF correction compared to forces is large: reduce conv_thr to get better values
     Energy error            =      1.4E-05 Ry
     Gradient error          =      2.2E-05 Ry/Bohr

     number of scf cycles    =   7
     number of bfgs steps    =   6

     energy             old  =     -23.9098996676 Ry
     energy             new  =     -23.9099132227 Ry

     CASE: energy            _new < energy            _old

     small trust_radius: resetting bfgs history

     new trust radius        =       0.0000223512 bohr
     new conv_thr            =            1.0E-11 Ry


ATOMIC_POSITIONS (crystal)
C                0.3333333330        0.6666666660        0.5000000000    0   0   0
C                0.6666666660        0.3333333330        0.4999978027



     Writing config-only to output data dir ../tmp/gr.save/ :
     XML data file
     NEW-OLD atomic charge density approx. for the potential

     Check: negative core charge=   -0.000004

     negative rho (up, down):  5.435E-05 0.000E+00

     total cpu time spent up to now is      157.2 secs

     Self-consistent Calculation

     iteration #  1     ecut=    60.00 Ry     beta= 0.70
     Davidson diagonalization with overlap
     ethr =  1.00E-06,  avg # of iterations =  1.1

     Threshold (ethr) on eigenvalues was too large:
     Diagonalizing with lowered threshold

     Davidson diagonalization with overlap
     ethr =  1.20E-12,  avg # of iterations =  5.6

     negative rho (up, down):  5.435E-05 0.000E+00

     total cpu time spent up to now is      160.0 secs

     total energy              =     -23.90991322 Ry
     estimated scf accuracy    <          1.3E-10 Ry

     iteration #  2     ecut=    60.00 Ry     beta= 0.70
     Davidson diagonalization with overlap
     ethr =  1.66E-12,  avg # of iterations =  1.7

     negative rho (up, down):  5.435E-05 0.000E+00

     total cpu time spent up to now is      160.8 secs

     total energy              =     -23.90991322 Ry
     estimated scf accuracy    <          3.8E-11 Ry

     iteration #  3     ecut=    60.00 Ry     beta= 0.70
     Davidson diagonalization with overlap
     ethr =  4.75E-13,  avg # of iterations =  1.9

     negative rho (up, down):  5.435E-05 0.000E+00

     total cpu time spent up to now is      161.7 secs

     End of self-consistent calculation

          k = 0.0000 0.0000 0.0000 (  2759 PWs)   bands (ev):

   -19.9924  -8.0922  -3.5172  -3.5172   2.5510   4.1978   5.1904   7.8800

          k = 0.0000 0.0962 0.0000 (  2774 PWs)   bands (ev):

   -19.8283  -7.8956  -4.1666  -3.8564   2.7758   4.4201   5.4109   7.9505

          k = 0.0000 0.1925 0.0000 (  2786 PWs)   bands (ev):

   -19.3377  -7.3113  -5.8024  -4.6504   3.4500   5.0842   6.0720   7.9135

          k = 0.0000 0.2887 0.0000 (  2772 PWs)   bands (ev):

   -18.5265  -7.9001  -6.3582  -5.5320   4.5721   6.1390   6.8871   7.1427

          k = 0.0000 0.3849 0.0000 (  2782 PWs)   bands (ev):

   -17.4065 -10.1042  -6.2669  -5.0869   4.4795   6.1341   7.2981   7.7602

          k = 0.0000 0.4811 0.0000 (  2776 PWs)   bands (ev):

   -16.0084 -12.2064  -6.7407  -3.6605   2.3373   7.0524   8.1583   9.7015

          k = 0.0000-0.5774 0.0000 (  2804 PWs)   bands (ev):

   -14.7379 -13.7197  -6.9034  -2.8134   1.2359   6.9753  10.5008  10.6343

          k = 0.0833 0.1443 0.0000 (  2777 PWs)   bands (ev):

   -19.5010  -7.5051  -5.1986  -4.5350   3.2255   4.8637   5.8529   8.2524

          k = 0.0833 0.2406 0.0000 (  2778 PWs)   bands (ev):

   -18.8501  -6.9071  -6.7352  -5.5346   4.1242   5.7432   6.7355   7.6784

          k = 0.0833 0.3368 0.0000 (  2785 PWs)   bands (ev):

   -17.8843  -8.9804  -6.4222  -5.6165   5.4688   5.4971   7.0884   7.9611

          k = 0.0833 0.4330 0.0000 (  2781 PWs)   bands (ev):

   -16.6223 -11.1046  -7.0579  -4.2334   3.2877   7.2435   7.8918   8.8091

          k = 0.0833 0.5292 0.0000 (  2789 PWs)   bands (ev):

   -15.1391 -13.0498  -7.3868  -2.9205   1.5134   7.7123   9.4729  10.8723

          k = 0.1667 0.2887 0.0000 (  2782 PWs)   bands (ev):

   -18.0446  -8.2356  -6.8989  -5.7957   5.2462   5.9536   6.8322   7.8430

          k = 0.1667 0.3849 0.0000 (  2786 PWs)   bands (ev):

   -16.9355  -9.9636  -7.9559  -4.5396   3.9997   6.8097   8.3160   9.3530

          k = 0.1667 0.4811 0.0000 (  2774 PWs)   bands (ev):

   -15.5574 -11.8770  -8.5316  -3.1091   2.0816   8.7951   9.6162  10.0698

          k = 0.1667 0.5774 0.0000 (  2774 PWs)   bands (ev):

   -14.3168 -13.3183  -8.7164  -2.2138   1.0101   9.5190  11.0933  11.2437

          k = 0.2500 0.4330 0.0000 (  2770 PWs)   bands (ev):

   -15.7056 -10.9964  -9.4430  -3.1935   2.3809   8.5790   9.7460  11.0931

          k = 0.2500 0.5292 0.0000 (  2781 PWs)   bands (ev):

   -14.2801 -12.4209 -10.1506  -1.8040   0.8565  10.4621  10.7165  11.7764

          k = 0.3333 0.5774 0.0000 (  2778 PWs)   bands (ev):

   -13.0598 -13.0598 -11.0533  -0.4446  -0.4446  10.1789  12.4087  12.4087

     the Fermi energy is    -0.4067 ev

!    total energy              =     -23.90991322 Ry
     estimated scf accuracy    <          6.7E-13 Ry
     smearing contrib. (-TS)   =      -0.00018232 Ry
     internal energy E=F+TS    =     -23.90973090 Ry

     The total energy is F=E-TS. E is the sum of the following terms:
     one-electron contribution =     -90.80443001 Ry
     hartree contribution      =      47.23798747 Ry
     xc contribution           =      -8.30633762 Ry
     ewald contribution        =      27.96304926 Ry

     convergence has been achieved in   3 iterations

     negative rho (up, down):  5.435E-05 0.000E+00

     Forces acting on atoms (cartesian axes, Ry/au):

     atom    1 type  1   force =     0.00000000    0.00000000   -0.00001483
     atom    2 type  1   force =     0.00000000    0.00000000    0.00001483

     Total force =     0.000015     Total SCF correction =     0.000001
     Energy error            =      5.2E-10 Ry
     Gradient error          =      1.5E-05 Ry/Bohr

     bfgs converged in   8 scf cycles and   7 bfgs steps
     (criteria: energy <  1.0E-05 Ry, force <  1.0E-04 Ry/Bohr)

     End of BFGS Geometry Optimization

     Final energy             =     -23.9099132232 Ry

     File ../tmp/gr.bfgs deleted, as requested
Begin final coordinates

ATOMIC_POSITIONS (crystal)
C                0.3333333330        0.6666666660        0.5000000000    0   0   0
C                0.6666666660        0.3333333330        0.4999978027
End final coordinates



     Writing all to output data dir ../tmp/gr.save/ :
     XML data file, charge density, pseudopotentials, collected wavefunctions

     init_run     :      0.25s CPU      0.35s WALL (       1 calls)
     electrons    :    149.52s CPU    159.95s WALL (       8 calls)
     update_pot   :      0.32s CPU      0.44s WALL (       7 calls)
     forces       :      0.79s CPU      0.85s WALL (       8 calls)

     Called by init_run:
     wfcinit      :      0.06s CPU      0.07s WALL (       1 calls)
     potinit      :      0.02s CPU      0.02s WALL (       1 calls)
     hinit0       :      0.16s CPU      0.22s WALL (       1 calls)

     Called by electrons:
     c_bands      :    130.81s CPU    138.91s WALL (      98 calls)
     sum_band     :     14.93s CPU     16.86s WALL (      98 calls)
     v_of_rho     :      2.22s CPU      2.56s WALL (     103 calls)
     newd         :      0.93s CPU      0.97s WALL (     103 calls)
     mix_rho      :      0.59s CPU      0.62s WALL (      98 calls)

     Called by c_bands:
     init_us_2    :      0.87s CPU      0.94s WALL (    3895 calls)
     cegterg      :    128.46s CPU    136.33s WALL (    1932 calls)

     Called by *egterg:
     cdiaghg      :      3.31s CPU      3.57s WALL (   11385 calls)
     h_psi        :     90.39s CPU     96.19s WALL (   11664 calls)
     s_psi        :      2.41s CPU      2.54s WALL (   11664 calls)
     g_psi        :      0.60s CPU      0.63s WALL (    9713 calls)

     Called by h_psi:
     h_psi:calbec :      9.65s CPU     10.23s WALL (   11664 calls)
     vloc_psi     :     78.03s CPU     83.09s WALL (   11664 calls)
                                        0.00s GPU  (   11664 calls)
     add_vuspsi   :      2.42s CPU      2.59s WALL (   11664 calls)

     General routines
     calbec       :     12.39s CPU     13.28s WALL (   14134 calls)
     fft          :      1.52s CPU      1.77s WALL (    1231 calls)
     ffts         :      0.05s CPU      0.05s WALL (      98 calls)
     fftw         :     83.42s CPU     89.74s WALL (  146550 calls)

     Parallel routines

     PWSCF        :   2m31.33s CPU   2m42.22s WALL


   This run was terminated on:   9:32:25  13Jan2026            

=------------------------------------------------------------------------------=
   JOB DONE.
=------------------------------------------------------------------------------=
