
     Program PWSCF v.7.5 starts on 13Jan2026 at 10:31:15 

     This program is part of the open-source Quantum ESPRESSO suite
     for quantum simulation of materials; please cite
         "P. Giannozzi et al., J. Phys.:Condens. Matter 21 395502 (2009);
         "P. Giannozzi et al., J. Phys.:Condens. Matter 29 465901 (2017);
         "P. Giannozzi et al., J. Chem. Phys. 152 154105 (2020);
          URL http://www.quantum-espresso.org", 
     in publications or presentations arising from this work. More details at
     http://www.quantum-espresso.org/quote

     Parallel version (MPI), running on     4 processors

     MPI processes distributed on     1 nodes
     1067 MiB available memory on the printing compute node when the environment starts

     Waiting for input...
     Reading input from standard input

     Current dimensions of program PWSCF are:
     Max number of different atomic species (ntypx) = 10
     Max number of k-points (npk) =  40000
     Max angular momentum in pseudopotentials (lmaxx) =  4

     R & G space division:  proc/nbgrp/npool/nimage =       4
     Subspace diagonalization in iterative solution of the eigenvalue problem:
     a serial algorithm will be used


     Parallelization info
     --------------------
     sticks:   dense  smooth     PW     G-vecs:    dense   smooth      PW
     Min          91      91     29                 8611     8611    1498
     Max          92      92     31                 8630     8630    1509
     Sum         367     367    121                34489    34489    6017

     Using Slab Decomposition



     bravais-lattice index     =            4
     lattice parameter (alat)  =       4.7243  a.u.
     unit-cell volume          =     547.8965 (a.u.)^3
     number of atoms/cell      =            2
     number of atomic types    =            1
     number of electrons       =         8.00
     number of Kohn-Sham states=            8
     kinetic-energy cutoff     =      60.0000  Ry
     charge density cutoff     =     240.0000  Ry
     scf convergence threshold =      1.0E-09
     mixing beta               =       0.7000
     number of iterations used =            8  plain     mixing
     energy convergence thresh.=      1.0E-05
     force convergence thresh. =      1.0E-04
     press convergence thresh. =      5.0E-02
     Exchange-correlation= PBE
                           (   1   4   3   4   0   0   0)
     nstep                     =           50


     celldm(1)=   4.724315  celldm(2)=   0.000000  celldm(3)=   6.000000
     celldm(4)=   0.000000  celldm(5)=   0.000000  celldm(6)=   0.000000

     crystal axes: (cart. coord. in units of alat)
               a(1) = (   1.000000   0.000000   0.000000 )  
               a(2) = (  -0.500000   0.866025   0.000000 )  
               a(3) = (   0.000000   0.000000   6.000000 )  

     reciprocal axes: (cart. coord. in units 2 pi/alat)
               b(1) = (  1.000000  0.577350 -0.000000 )  
               b(2) = (  0.000000  1.154701  0.000000 )  
               b(3) = (  0.000000 -0.000000  0.166667 )  


     PseudoPot. # 1 for C  read from file:
     ../pseudo/C.pbe-n-rrkjus_psl.0.1.UPF
     MD5 check sum: 96a6a315177d77e6c95bf6fd3870f9e3
     Pseudo is Ultrasoft + core correction, Zval =  4.0
     Generated using &quot;atomic&quot; code by A. Dal Corso  v.6.3MaX
     Using radial grid of 1073 points,  4 beta functions with: 
                l(1) =   0
                l(2) =   0
                l(3) =   1
                l(4) =   1
     Q(r) pseudized with 0 coefficients 


     atomic species   valence    mass     pseudopotential
     C                 4.00    12.01070     C ( 1.00)

     24 Sym. Ops., with inversion, found



   Cartesian axes

     site n.     atom                  positions (alat units)
         1        C      tau(   1) = (   0.0000000   0.5773503   3.0000000  )
         2        C      tau(   2) = (   0.5000000   0.2886751   3.0000000  )

     number of k points=    19  Marzari-Vanderbilt smearing, width (Ry)=  0.0200
                       cart. coord. in units 2pi/alat
        k(    1) = (   0.0000000   0.0000000   0.0000000), wk =   0.0138889
        k(    2) = (   0.0000000   0.0962250   0.0000000), wk =   0.0833333
        k(    3) = (   0.0000000   0.1924501   0.0000000), wk =   0.0833333
        k(    4) = (   0.0000000   0.2886751   0.0000000), wk =   0.0833333
        k(    5) = (   0.0000000   0.3849002   0.0000000), wk =   0.0833333
        k(    6) = (   0.0000000   0.4811252   0.0000000), wk =   0.0833333
        k(    7) = (   0.0000000  -0.5773503   0.0000000), wk =   0.0416667
        k(    8) = (   0.0833333   0.1443376   0.0000000), wk =   0.0833333
        k(    9) = (   0.0833333   0.2405626   0.0000000), wk =   0.1666667
        k(   10) = (   0.0833333   0.3367877   0.0000000), wk =   0.1666667
        k(   11) = (   0.0833333   0.4330127   0.0000000), wk =   0.1666667
        k(   12) = (   0.0833333   0.5292377   0.0000000), wk =   0.1666667
        k(   13) = (   0.1666667   0.2886751   0.0000000), wk =   0.0833333
        k(   14) = (   0.1666667   0.3849002   0.0000000), wk =   0.1666667
        k(   15) = (   0.1666667   0.4811252   0.0000000), wk =   0.1666667
        k(   16) = (   0.1666667   0.5773503   0.0000000), wk =   0.0833333
        k(   17) = (   0.2500000   0.4330127   0.0000000), wk =   0.0833333
        k(   18) = (   0.2500000   0.5292377   0.0000000), wk =   0.1666667
        k(   19) = (   0.3333333   0.5773503   0.0000000), wk =   0.0277778

     Dense  grid:    34489 G-vectors     FFT dimensions: (  24,  24, 144)

     Estimated max dynamical RAM per process >      15.19 MB

     Estimated total dynamical RAM >      60.77 MB

     Check: negative core charge=   -0.000003

     Initial potential from superposition of free atoms

     starting charge       7.9999, renormalised to       8.0000

     negative rho (up, down):  9.191E-05 0.000E+00
     Starting wfcs are    8 randomized atomic wfcs

     total cpu time spent up to now is        0.6 secs

     Self-consistent Calculation

     iteration #  1     ecut=    60.00 Ry     beta= 0.70
     Davidson diagonalization with overlap
     ethr =  1.00E-02,  avg # of iterations =  5.9

     Threshold (ethr) on eigenvalues was too large:
     Diagonalizing with lowered threshold

     Davidson diagonalization with overlap
     ethr =  6.19E-04,  avg # of iterations =  8.4

     negative rho (up, down):  1.990E-05 0.000E+00

     total cpu time spent up to now is        1.5 secs

     total energy              =     -23.88285059 Ry
     estimated scf accuracy    <       0.17047939 Ry

     iteration #  2     ecut=    60.00 Ry     beta= 0.70
     Davidson diagonalization with overlap
     ethr =  2.13E-03,  avg # of iterations =  1.5

     negative rho (up, down):  5.176E-05 0.000E+00

     total cpu time spent up to now is        1.7 secs

     total energy              =     -23.89152528 Ry
     estimated scf accuracy    <       0.00569650 Ry

     iteration #  3     ecut=    60.00 Ry     beta= 0.70
     Davidson diagonalization with overlap
     c_bands:  1 eigenvalues not converged
     c_bands:  3 eigenvalues not converged
     c_bands:  2 eigenvalues not converged
     c_bands:  2 eigenvalues not converged
     c_bands:  1 eigenvalues not converged
     c_bands:  1 eigenvalues not converged
     c_bands:  1 eigenvalues not converged
     c_bands:  2 eigenvalues not converged
     c_bands:  1 eigenvalues not converged
     c_bands:  1 eigenvalues not converged
     c_bands:  1 eigenvalues not converged
     c_bands:  2 eigenvalues not converged
     ethr =  7.12E-05,  avg # of iterations = 19.1

     negative rho (up, down):  4.967E-05 0.000E+00

     total cpu time spent up to now is        7.7 secs

     total energy              =     -23.91208816 Ry
     estimated scf accuracy    <       0.00717584 Ry

     iteration #  4     ecut=    60.00 Ry     beta= 0.70
     Davidson diagonalization with overlap
     ethr =  7.12E-05,  avg # of iterations =  3.6

     negative rho (up, down):  6.156E-05 0.000E+00

     total cpu time spent up to now is       11.0 secs

     total energy              =     -23.91378968 Ry
     estimated scf accuracy    <       0.01048862 Ry

     iteration #  5     ecut=    60.00 Ry     beta= 0.70
     Davidson diagonalization with overlap
     ethr =  7.12E-05,  avg # of iterations =  1.3

     negative rho (up, down):  9.395E-05 0.000E+00

     total cpu time spent up to now is       12.2 secs

     total energy              =     -23.90731329 Ry
     estimated scf accuracy    <       0.01243499 Ry

     iteration #  6     ecut=    60.00 Ry     beta= 0.70
     Davidson diagonalization with overlap
     ethr =  7.12E-05,  avg # of iterations =  1.9

     negative rho (up, down):  9.318E-05 0.000E+00

     total cpu time spent up to now is       12.8 secs

     total energy              =     -23.90798212 Ry
     estimated scf accuracy    <       0.00224631 Ry

     iteration #  7     ecut=    60.00 Ry     beta= 0.70
     Davidson diagonalization with overlap
     ethr =  2.81E-05,  avg # of iterations =  3.3

     negative rho (up, down):  9.083E-05 0.000E+00

     total cpu time spent up to now is       13.9 secs

     total energy              =     -23.90819006 Ry
     estimated scf accuracy    <       0.00219936 Ry

     iteration #  8     ecut=    60.00 Ry     beta= 0.70
     Davidson diagonalization with overlap
     ethr =  2.75E-05,  avg # of iterations =  1.4

     negative rho (up, down):  9.062E-05 0.000E+00

     total cpu time spent up to now is       14.7 secs

     total energy              =     -23.90833515 Ry
     estimated scf accuracy    <       0.00215846 Ry

     iteration #  9     ecut=    60.00 Ry     beta= 0.70
     Davidson diagonalization with overlap
     ethr =  2.70E-05,  avg # of iterations =  1.2

     negative rho (up, down):  8.459E-05 0.000E+00

     total cpu time spent up to now is       15.7 secs

     total energy              =     -23.90856923 Ry
     estimated scf accuracy    <       0.00218589 Ry

     iteration # 10     ecut=    60.00 Ry     beta= 0.70
     Davidson diagonalization with overlap
     ethr =  2.70E-05,  avg # of iterations =  1.3

     negative rho (up, down):  9.547E-05 0.000E+00

     total cpu time spent up to now is       16.6 secs

     total energy              =     -23.90751476 Ry
     estimated scf accuracy    <       0.00233444 Ry

     iteration # 11     ecut=    60.00 Ry     beta= 0.70
     Davidson diagonalization with overlap
     ethr =  2.70E-05,  avg # of iterations =  1.6

     negative rho (up, down):  1.970E-04 0.000E+00

     total cpu time spent up to now is       18.0 secs

     total energy              =     -23.90946488 Ry
     estimated scf accuracy    <       0.00062050 Ry

     iteration # 12     ecut=    60.00 Ry     beta= 0.70
     Davidson diagonalization with overlap
     c_bands:  1 eigenvalues not converged
     c_bands:  1 eigenvalues not converged
     c_bands:  1 eigenvalues not converged
     c_bands:  1 eigenvalues not converged
     ethr =  7.76E-06,  avg # of iterations = 12.5

     negative rho (up, down):  1.382E-04 0.000E+00

     total cpu time spent up to now is       21.2 secs

     total energy              =     -23.90953652 Ry
     estimated scf accuracy    <       0.00964813 Ry

     iteration # 13     ecut=    60.00 Ry     beta= 0.70
     Davidson diagonalization with overlap
     ethr =  7.76E-06,  avg # of iterations =  2.4

     negative rho (up, down):  1.223E-04 0.000E+00

     total cpu time spent up to now is       22.5 secs

     total energy              =     -23.90868240 Ry
     estimated scf accuracy    <       0.00496382 Ry

     iteration # 14     ecut=    60.00 Ry     beta= 0.70
     Davidson diagonalization with overlap
     ethr =  7.76E-06,  avg # of iterations =  3.4

     negative rho (up, down):  1.196E-04 0.000E+00

     total cpu time spent up to now is       23.6 secs

     total energy              =     -23.90877005 Ry
     estimated scf accuracy    <       0.00245635 Ry

     iteration # 15     ecut=    60.00 Ry     beta= 0.70
     Davidson diagonalization with overlap
     ethr =  7.76E-06,  avg # of iterations =  1.4

     negative rho (up, down):  1.128E-04 0.000E+00

     total cpu time spent up to now is       24.4 secs

     total energy              =     -23.90804026 Ry
     estimated scf accuracy    <       0.00228041 Ry

     iteration # 16     ecut=    60.00 Ry     beta= 0.70
     Davidson diagonalization with overlap
     ethr =  7.76E-06,  avg # of iterations =  3.6

     negative rho (up, down):  1.028E-04 0.000E+00

     total cpu time spent up to now is       25.6 secs

     total energy              =     -23.90756932 Ry
     estimated scf accuracy    <       0.00082913 Ry

     iteration # 17     ecut=    60.00 Ry     beta= 0.70
     Davidson diagonalization with overlap
     ethr =  7.76E-06,  avg # of iterations =  4.2

     negative rho (up, down):  1.167E-04 0.000E+00

     total cpu time spent up to now is       26.8 secs

     total energy              =     -23.90782887 Ry
     estimated scf accuracy    <       0.00001563 Ry

     iteration # 18     ecut=    60.00 Ry     beta= 0.70
     Davidson diagonalization with overlap
     ethr =  1.95E-07,  avg # of iterations =  8.3

     negative rho (up, down):  1.112E-04 0.000E+00

     total cpu time spent up to now is       29.3 secs

     total energy              =     -23.90790696 Ry
     estimated scf accuracy    <       0.00001402 Ry

     iteration # 19     ecut=    60.00 Ry     beta= 0.70
     Davidson diagonalization with overlap
     c_bands:  1 eigenvalues not converged
     ethr =  1.75E-07,  avg # of iterations =  6.4

     negative rho (up, down):  1.091E-04 0.000E+00

     total cpu time spent up to now is       30.8 secs

     total energy              =     -23.90800578 Ry
     estimated scf accuracy    <       0.00006348 Ry

     iteration # 20     ecut=    60.00 Ry     beta= 0.70
     Davidson diagonalization with overlap
     ethr =  1.75E-07,  avg # of iterations =  5.0

     negative rho (up, down):  1.145E-04 0.000E+00

     total cpu time spent up to now is       32.6 secs

     total energy              =     -23.90788231 Ry
     estimated scf accuracy    <       0.00026479 Ry

     iteration # 21     ecut=    60.00 Ry     beta= 0.70
     Davidson diagonalization with overlap
     ethr =  1.75E-07,  avg # of iterations =  4.3

     negative rho (up, down):  1.169E-04 0.000E+00

     total cpu time spent up to now is       33.8 secs

     total energy              =     -23.90789133 Ry
     estimated scf accuracy    <       0.00002199 Ry

     iteration # 22     ecut=    60.00 Ry     beta= 0.70
     Davidson diagonalization with overlap
     ethr =  1.75E-07,  avg # of iterations =  1.6

     negative rho (up, down):  1.197E-04 0.000E+00

     total cpu time spent up to now is       34.8 secs

     total energy              =     -23.90789103 Ry
     estimated scf accuracy    <       0.00000325 Ry

     iteration # 23     ecut=    60.00 Ry     beta= 0.70
     Davidson diagonalization with overlap
     ethr =  4.06E-08,  avg # of iterations =  4.2

     negative rho (up, down):  1.176E-04 0.000E+00

     total cpu time spent up to now is       36.6 secs

     total energy              =     -23.90789393 Ry
     estimated scf accuracy    <       0.00000490 Ry

     iteration # 24     ecut=    60.00 Ry     beta= 0.70
     Davidson diagonalization with overlap
     ethr =  4.06E-08,  avg # of iterations =  4.2

     negative rho (up, down):  1.177E-04 0.000E+00

     total cpu time spent up to now is       37.7 secs

     total energy              =     -23.90789536 Ry
     estimated scf accuracy    <       0.00000218 Ry

     iteration # 25     ecut=    60.00 Ry     beta= 0.70
     Davidson diagonalization with overlap
     ethr =  2.73E-08,  avg # of iterations =  1.2

     negative rho (up, down):  1.183E-04 0.000E+00

     total cpu time spent up to now is       38.7 secs

     total energy              =     -23.90789467 Ry
     estimated scf accuracy    <       0.00000135 Ry

     iteration # 26     ecut=    60.00 Ry     beta= 0.70
     Davidson diagonalization with overlap
     ethr =  1.69E-08,  avg # of iterations =  1.8

     negative rho (up, down):  1.184E-04 0.000E+00

     total cpu time spent up to now is       39.5 secs

     total energy              =     -23.90789479 Ry
     estimated scf accuracy    <       0.00000007 Ry

     iteration # 27     ecut=    60.00 Ry     beta= 0.70
     Davidson diagonalization with overlap
     ethr =  8.42E-10,  avg # of iterations =  4.6

     negative rho (up, down):  1.182E-04 0.000E+00

     total cpu time spent up to now is       40.9 secs

     total energy              =     -23.90789498 Ry
     estimated scf accuracy    <          5.8E-09 Ry

     iteration # 28     ecut=    60.00 Ry     beta= 0.70
     Davidson diagonalization with overlap
     ethr =  7.26E-11,  avg # of iterations =  4.6

     negative rho (up, down):  1.183E-04 0.000E+00

     total cpu time spent up to now is       43.0 secs

     total energy              =     -23.90789497 Ry
     estimated scf accuracy    <       0.00000002 Ry

     iteration # 29     ecut=    60.00 Ry     beta= 0.70
     Davidson diagonalization with overlap
     ethr =  7.26E-11,  avg # of iterations =  4.5

     negative rho (up, down):  1.183E-04 0.000E+00

     total cpu time spent up to now is       44.3 secs

     total energy              =     -23.90789498 Ry
     estimated scf accuracy    <          5.9E-09 Ry

     iteration # 30     ecut=    60.00 Ry     beta= 0.70
     Davidson diagonalization with overlap
     ethr =  7.26E-11,  avg # of iterations =  1.0

     negative rho (up, down):  1.182E-04 0.000E+00

     total cpu time spent up to now is       45.3 secs

     End of self-consistent calculation

          k = 0.0000 0.0000 0.0000 (  4287 PWs)   bands (ev):

   -21.0679  -9.2283  -4.9695  -4.9695   1.3803   2.1987   2.4579   4.4315

          k = 0.0000 0.0962 0.0000 (  4260 PWs)   bands (ev):

   -20.9082  -9.0389  -5.6083  -5.2926   1.5984   2.4180   2.6780   4.6485

          k = 0.0000 0.1925 0.0000 (  4270 PWs)   bands (ev):

   -20.4308  -8.4760  -7.2121  -6.0514   2.2523   3.0744   3.3382   5.2950

          k = 0.0000 0.2887 0.0000 (  4280 PWs)   bands (ev):

   -19.6416  -9.2618  -7.5588  -6.8964   3.3400   4.1502   4.4372   5.0962

          k = 0.0000 0.3849 0.0000 (  4278 PWs)   bands (ev):

   -18.5534 -11.4098  -7.6022  -6.3369   2.8597   4.8476   5.4410   5.9906

          k = 0.0000 0.4811 0.0000 (  4316 PWs)   bands (ev):

   -17.2010 -13.4499  -8.0578  -4.9704   0.8202   5.1792   6.8090   7.6512

          k = 0.0000-0.5774 0.0000 (  4320 PWs)   bands (ev):

   -16.0174 -14.8705  -8.2143  -4.1641  -0.2253   5.0940   9.0680   9.2075

          k = 0.0833 0.1443 0.0000 (  4283 PWs)   bands (ev):

   -20.5896  -8.6627  -6.6246  -5.9404   2.0345   2.8560   3.1183   5.0803

          k = 0.0833 0.2406 0.0000 (  4269 PWs)   bands (ev):

   -19.9563  -8.2986  -7.9214  -6.8996   2.9059   3.7285   3.9987   5.8444

          k = 0.0833 0.3368 0.0000 (  4299 PWs)   bands (ev):

   -19.0173 -10.3200  -7.7557  -6.8455   3.8218   4.2088   5.0526   5.3163

          k = 0.0833 0.4330 0.0000 (  4319 PWs)   bands (ev):

   -17.7929 -12.3855  -8.3699  -5.5180   1.7189   5.8740   6.0606   6.7743

          k = 0.0833 0.5292 0.0000 (  4307 PWs)   bands (ev):

   -16.3709 -14.2579  -8.6877  -4.2637   0.0314   5.8185   8.0812   8.8818

          k = 0.1667 0.2887 0.0000 (  4306 PWs)   bands (ev):

   -19.1731  -9.6124  -8.2063  -7.0177   3.9933   4.2463   4.8136   5.0993

          k = 0.1667 0.3849 0.0000 (  4303 PWs)   bands (ev):

   -18.0957 -11.2955  -9.2321  -5.8108   2.3838   5.5073   6.3126   6.6363

          k = 0.1667 0.4811 0.0000 (  4299 PWs)   bands (ev):

   -16.7627 -13.1444  -9.7976  -4.4399   0.5555   7.4100   7.7045   8.1568

          k = 0.1667 0.5774 0.0000 (  4296 PWs)   bands (ev):

   -15.6021 -14.4986  -9.9792  -3.5866  -0.4630   7.5847   9.5758   9.6152

          k = 0.2500 0.4330 0.0000 (  4304 PWs)   bands (ev):

   -16.9036 -12.3299 -10.6489  -4.5191   0.8298   7.2173   7.8842   8.3872

          k = 0.2500 0.5292 0.0000 (  4297 PWs)   bands (ev):

   -15.5342 -13.6974 -11.3403  -3.1890  -0.6295   8.8976   9.2559   9.8230

          k = 0.3333 0.5774 0.0000 (  4302 PWs)   bands (ev):

   -14.3627 -14.3627 -12.1610  -1.8839  -1.8839   8.6702  10.6791  10.6791

     the Fermi energy is    -1.8460 ev

!    total energy              =     -23.90789498 Ry
     estimated scf accuracy    <          8.3E-10 Ry
     smearing contrib. (-TS)   =      -0.00018232 Ry
     internal energy E=F+TS    =     -23.90771265 Ry

     The total energy is F=E-TS. E is the sum of the following terms:
     one-electron contribution =    -152.77766941 Ry
     hartree contribution      =      77.80880250 Ry
     xc contribution           =      -8.23888465 Ry
     ewald contribution        =      59.30003890 Ry

     convergence has been achieved in  30 iterations

     negative rho (up, down):  1.182E-04 0.000E+00

     Forces acting on atoms (cartesian axes, Ry/au):

     atom    1 type  1   force =     0.00000000    0.00000000    0.00000000
     atom    2 type  1   force =     0.00000000    0.00000000    0.00000000

     Total force =     0.000000     Total SCF correction =     0.000000


     Computing stress (Cartesian axis) and pressure


     negative rho (up, down):  1.182E-04 0.000E+00
          total   stress  (Ry/bohr**3)                   (kbar)     P=      -25.34
  -0.00025727  -0.00000000   0.00000000          -37.85       -0.00        0.00
  -0.00000000  -0.00025727   0.00000000           -0.00      -37.85        0.00
   0.00000000   0.00000000  -0.00000226            0.00        0.00       -0.33


     BFGS Geometry Optimization
     Energy error            =      1.9E-03 Ry
     Gradient error          =      1.6E-25 Ry/Bohr
     Cell gradient error     =      3.8E+01 kbar

     number of scf cycles    =   1
     number of bfgs steps    =   0

     enthalpy           new  =     -23.9078949776 Ry

     new trust radius        =       0.0301098989 bohr
     new conv_thr            =       0.0000000010 Ry

     new unit-cell volume =    540.87126 a.u.^3 (    80.14885 Ang^3 )
     density =      0.49768 g/cm^3

CELL_PARAMETERS (alat=  4.72431531)
   0.993568237  -0.000000000   0.000000000
  -0.496784118   0.860455333   0.000000000
   0.000000000   0.000000000   6.000000000

ATOMIC_POSITIONS (crystal)
C                0.3333333330        0.6666666660        0.5000000000
C                0.6666666660        0.3333333330        0.5000000000



     Writing config-only to output data dir ../tmp/gr.save/ :
     XML data file
     NEW-OLD atomic charge density approx. for the potential
     New effective cutoffs (rho, wfc):  242.88   60.74

     Check: negative core charge=   -0.000003

     negative rho (up, down):  1.296E-04 0.000E+00

     total cpu time spent up to now is       46.2 secs

     Self-consistent Calculation

     iteration #  1     ecut=    60.00 Ry     beta= 0.70
     Davidson diagonalization with overlap
     ethr =  1.00E-06,  avg # of iterations =  6.7

     negative rho (up, down):  1.233E-04 0.000E+00

     total cpu time spent up to now is       48.4 secs

     total energy              =     -23.90929920 Ry
     estimated scf accuracy    <       0.00010574 Ry

     iteration #  2     ecut=    60.00 Ry     beta= 0.70
     Davidson diagonalization with overlap
     ethr =  1.32E-06,  avg # of iterations =  2.3

     negative rho (up, down):  1.192E-04 0.000E+00

     total cpu time spent up to now is       49.3 secs

     total energy              =     -23.90930729 Ry
     estimated scf accuracy    <       0.00000260 Ry

     iteration #  3     ecut=    60.00 Ry     beta= 0.70
     Davidson diagonalization with overlap
     ethr =  3.25E-08,  avg # of iterations =  5.3

     negative rho (up, down):  1.199E-04 0.000E+00

     total cpu time spent up to now is       50.8 secs

     total energy              =     -23.90932051 Ry
     estimated scf accuracy    <       0.00000676 Ry

     iteration #  4     ecut=    60.00 Ry     beta= 0.70
     Davidson diagonalization with overlap
     ethr =  3.25E-08,  avg # of iterations =  1.1

     negative rho (up, down):  1.205E-04 0.000E+00

     total cpu time spent up to now is       51.6 secs

     total energy              =     -23.90931968 Ry
     estimated scf accuracy    <       0.00000161 Ry

     iteration #  5     ecut=    60.00 Ry     beta= 0.70
     Davidson diagonalization with overlap
     ethr =  2.01E-08,  avg # of iterations =  3.7

     negative rho (up, down):  1.208E-04 0.000E+00

     total cpu time spent up to now is       53.0 secs

     total energy              =     -23.90932083 Ry
     estimated scf accuracy    <       0.00000020 Ry

     iteration #  6     ecut=    60.00 Ry     beta= 0.70
     Davidson diagonalization with overlap
     ethr =  2.50E-09,  avg # of iterations =  4.2

     negative rho (up, down):  1.208E-04 0.000E+00

     total cpu time spent up to now is       54.6 secs

     total energy              =     -23.90932107 Ry
     estimated scf accuracy    <       0.00000097 Ry

     iteration #  7     ecut=    60.00 Ry     beta= 0.70
     Davidson diagonalization with overlap
     ethr =  2.50E-09,  avg # of iterations =  1.6

     negative rho (up, down):  1.208E-04 0.000E+00

     total cpu time spent up to now is       55.5 secs

     total energy              =     -23.90932110 Ry
     estimated scf accuracy    <       0.00000103 Ry

     iteration #  8     ecut=    60.00 Ry     beta= 0.70
     Davidson diagonalization with overlap
     ethr =  2.50E-09,  avg # of iterations =  1.0

     negative rho (up, down):  1.202E-04 0.000E+00

     total cpu time spent up to now is       56.4 secs

     total energy              =     -23.90932061 Ry
     estimated scf accuracy    <       0.00000108 Ry

     iteration #  9     ecut=    60.00 Ry     beta= 0.70
     Davidson diagonalization with overlap
     ethr =  2.50E-09,  avg # of iterations =  1.9

     negative rho (up, down):  1.201E-04 0.000E+00

     total cpu time spent up to now is       57.4 secs

     total energy              =     -23.90932059 Ry
     estimated scf accuracy    <       0.00000025 Ry

     iteration # 10     ecut=    60.00 Ry     beta= 0.70
     Davidson diagonalization with overlap
     ethr =  2.50E-09,  avg # of iterations =  1.4

     negative rho (up, down):  1.201E-04 0.000E+00

     total cpu time spent up to now is       58.4 secs

     total energy              =     -23.90932061 Ry
     estimated scf accuracy    <       0.00000014 Ry

     iteration # 11     ecut=    60.00 Ry     beta= 0.70
     Davidson diagonalization with overlap
     ethr =  1.70E-09,  avg # of iterations =  1.3

     negative rho (up, down):  1.201E-04 0.000E+00

     total cpu time spent up to now is       59.1 secs

     total energy              =     -23.90932061 Ry
     estimated scf accuracy    <       0.00000012 Ry

     iteration # 12     ecut=    60.00 Ry     beta= 0.70
     Davidson diagonalization with overlap
     ethr =  1.50E-09,  avg # of iterations =  1.2

     negative rho (up, down):  1.201E-04 0.000E+00

     total cpu time spent up to now is       59.8 secs

     total energy              =     -23.90932061 Ry
     estimated scf accuracy    <       0.00000009 Ry

     iteration # 13     ecut=    60.00 Ry     beta= 0.70
     Davidson diagonalization with overlap
     ethr =  1.12E-09,  avg # of iterations =  1.2

     negative rho (up, down):  1.201E-04 0.000E+00

     total cpu time spent up to now is       60.9 secs

     total energy              =     -23.90932062 Ry
     estimated scf accuracy    <       0.00000008 Ry

     iteration # 14     ecut=    60.00 Ry     beta= 0.70
     Davidson diagonalization with overlap
     ethr =  9.70E-10,  avg # of iterations =  1.1

     negative rho (up, down):  1.200E-04 0.000E+00

     total cpu time spent up to now is       61.8 secs

     total energy              =     -23.90932059 Ry
     estimated scf accuracy    <       0.00000009 Ry

     iteration # 15     ecut=    60.00 Ry     beta= 0.70
     Davidson diagonalization with overlap
     ethr =  9.70E-10,  avg # of iterations =  2.0

     negative rho (up, down):  1.200E-04 0.000E+00

     total cpu time spent up to now is       62.9 secs

     total energy              =     -23.90932060 Ry
     estimated scf accuracy    <       0.00000001 Ry

     iteration # 16     ecut=    60.00 Ry     beta= 0.70
     Davidson diagonalization with overlap
     ethr =  1.80E-10,  avg # of iterations =  3.8

     negative rho (up, down):  1.201E-04 0.000E+00

     total cpu time spent up to now is       64.0 secs

     total energy              =     -23.90932061 Ry
     estimated scf accuracy    <          5.7E-09 Ry

     iteration # 17     ecut=    60.00 Ry     beta= 0.70
     Davidson diagonalization with overlap
     ethr =  7.14E-11,  avg # of iterations =  2.9

     negative rho (up, down):  1.201E-04 0.000E+00

     total cpu time spent up to now is       64.8 secs

     total energy              =     -23.90932061 Ry
     estimated scf accuracy    <          6.4E-09 Ry

     iteration # 18     ecut=    60.00 Ry     beta= 0.70
     Davidson diagonalization with overlap
     ethr =  7.14E-11,  avg # of iterations =  1.1

     negative rho (up, down):  1.201E-04 0.000E+00

     total cpu time spent up to now is       66.2 secs

     total energy              =     -23.90932063 Ry
     estimated scf accuracy    <       0.00000001 Ry

     iteration # 19     ecut=    60.00 Ry     beta= 0.70
     Davidson diagonalization with overlap
     ethr =  7.14E-11,  avg # of iterations =  2.6

     negative rho (up, down):  1.202E-04 0.000E+00

     total cpu time spent up to now is       67.3 secs

     total energy              =     -23.90932069 Ry
     estimated scf accuracy    <       0.00000004 Ry

     iteration # 20     ecut=    60.00 Ry     beta= 0.70
     Davidson diagonalization with overlap
     ethr =  7.14E-11,  avg # of iterations =  4.2

     negative rho (up, down):  1.202E-04 0.000E+00

     total cpu time spent up to now is       68.7 secs

     total energy              =     -23.90932072 Ry
     estimated scf accuracy    <       0.00000022 Ry

     iteration # 21     ecut=    60.00 Ry     beta= 0.70
     Davidson diagonalization with overlap
     ethr =  7.14E-11,  avg # of iterations =  1.1

     negative rho (up, down):  1.201E-04 0.000E+00

     total cpu time spent up to now is       69.6 secs

     total energy              =     -23.90932064 Ry
     estimated scf accuracy    <       0.00000024 Ry

     iteration # 22     ecut=    60.00 Ry     beta= 0.70
     Davidson diagonalization with overlap
     ethr =  7.14E-11,  avg # of iterations =  5.1

     negative rho (up, down):  1.201E-04 0.000E+00

     total cpu time spent up to now is       70.7 secs

     total energy              =     -23.90932067 Ry
     estimated scf accuracy    <       0.00000010 Ry

     iteration # 23     ecut=    60.00 Ry     beta= 0.70
     Davidson diagonalization with overlap
     ethr =  7.14E-11,  avg # of iterations =  1.1

     negative rho (up, down):  1.201E-04 0.000E+00

     total cpu time spent up to now is       71.6 secs

     total energy              =     -23.90932066 Ry
     estimated scf accuracy    <       0.00000013 Ry

     iteration # 24     ecut=    60.00 Ry     beta= 0.70
     Davidson diagonalization with overlap
     ethr =  7.14E-11,  avg # of iterations =  1.0

     negative rho (up, down):  1.201E-04 0.000E+00

     total cpu time spent up to now is       72.5 secs

     total energy              =     -23.90932066 Ry
     estimated scf accuracy    <       0.00000012 Ry

     iteration # 25     ecut=    60.00 Ry     beta= 0.70
     Davidson diagonalization with overlap
     ethr =  7.14E-11,  avg # of iterations =  1.0

     negative rho (up, down):  1.201E-04 0.000E+00

     total cpu time spent up to now is       73.6 secs

     total energy              =     -23.90932061 Ry
     estimated scf accuracy    <       0.00000011 Ry

     iteration # 26     ecut=    60.00 Ry     beta= 0.70
     Davidson diagonalization with overlap
     ethr =  7.14E-11,  avg # of iterations =  4.9

     negative rho (up, down):  1.201E-04 0.000E+00

     total cpu time spent up to now is       74.6 secs

     total energy              =     -23.90932062 Ry
     estimated scf accuracy    <       0.00000002 Ry

     iteration # 27     ecut=    60.00 Ry     beta= 0.70
     Davidson diagonalization with overlap
     ethr =  7.14E-11,  avg # of iterations =  1.0

     negative rho (up, down):  1.199E-04 0.000E+00

     total cpu time spent up to now is       75.5 secs

     total energy              =     -23.90932060 Ry
     estimated scf accuracy    <       0.00000004 Ry

     iteration # 28     ecut=    60.00 Ry     beta= 0.70
     Davidson diagonalization with overlap
     ethr =  7.14E-11,  avg # of iterations =  4.1

     negative rho (up, down):  1.200E-04 0.000E+00

     total cpu time spent up to now is       76.8 secs

     total energy              =     -23.90932061 Ry
     estimated scf accuracy    <          3.2E-09 Ry

     iteration # 29     ecut=    60.00 Ry     beta= 0.70
     Davidson diagonalization with overlap
     ethr =  3.99E-11,  avg # of iterations =  1.2

     negative rho (up, down):  1.200E-04 0.000E+00

     total cpu time spent up to now is       77.6 secs

     End of self-consistent calculation

          k = 0.0000 0.0000 0.0000 (  4287 PWs)   bands (ev):

   -21.1472  -9.2815  -4.8903  -4.8903   1.3933   2.2122   2.4676   4.4428

          k = 0.0000 0.0968 0.0000 (  4260 PWs)   bands (ev):

   -20.9857  -9.0891  -5.5334  -5.2201   1.6142   2.4344   2.6905   4.6624

          k = 0.0000 0.1937 0.0000 (  4270 PWs)   bands (ev):

   -20.5027  -8.5172  -7.1505  -5.9937   2.2765   3.0998   3.3593   5.3179

          k = 0.0000 0.2905 0.0000 (  4280 PWs)   bands (ev):

   -19.7042  -9.2204  -7.5849  -6.8541   3.3784   4.1924   4.4726   5.2919

          k = 0.0000 0.3874 0.0000 (  4278 PWs)   bands (ev):

   -18.6025 -11.3921  -7.5721  -6.3422   3.0101   4.9083   5.6849   6.0508

          k = 0.0000 0.4842 0.0000 (  4316 PWs)   bands (ev):

   -17.2307 -13.4586  -8.0354  -4.9505   0.9276   5.4369   6.8947   7.7404

          k =-0.0000-0.5811 0.0000 (  4320 PWs)   bands (ev):

   -16.0110 -14.9176  -8.1945  -4.1270  -0.1414   5.3546   9.1853   9.3232

          k = 0.0839 0.1453 0.0000 (  4283 PWs)   bands (ev):

   -20.6634  -8.7068  -6.5563  -5.8809   2.0559   2.8783   3.1365   5.1004

          k = 0.0839 0.2421 0.0000 (  4269 PWs)   bands (ev):

   -20.0227  -8.2446  -7.9535  -6.8571   2.9387   3.7628   4.0283   5.9463

          k = 0.0839 0.3390 0.0000 (  4299 PWs)   bands (ev):

   -19.0723 -10.2879  -7.7264  -6.8596   3.9943   4.2586   5.1070   5.3635

          k = 0.0839 0.4358 0.0000 (  4319 PWs)   bands (ev):

   -17.8319 -12.3783  -8.3497  -5.5087   1.8480   5.9819   6.2869   6.8514

          k = 0.0839 0.5327 0.0000 (  4307 PWs)   bands (ev):

   -16.3840 -14.2814  -8.6722  -4.2298   0.1241   6.0846   8.1834   8.9911

          k = 0.1677 0.2905 0.0000 (  4306 PWs)   bands (ev):

   -19.2300  -9.5647  -8.1880  -7.0348   4.0403   4.4335   4.8628   5.1433

          k = 0.1677 0.3874 0.0000 (  4303 PWs)   bands (ev):

   -18.1392 -11.2665  -9.2271  -5.8071   2.5326   5.5744   6.3832   6.7007

          k = 0.1677 0.4842 0.0000 (  4299 PWs)   bands (ev):

   -16.7871 -13.1427  -9.7971  -4.4112   0.6666   7.5123   7.9756   8.2564

          k = 0.1677 0.5811 0.0000 (  4296 PWs)   bands (ev):

   -15.5933 -14.5330  -9.9800  -3.5402  -0.3742   7.8681   9.7080   9.7444

          k = 0.2516 0.4358 0.0000 (  4304 PWs)   bands (ev):

   -16.9311 -12.3006 -10.6734  -4.4925   0.9513   7.3076   7.9800   8.4749

          k = 0.2516 0.5327 0.0000 (  4297 PWs)   bands (ev):

   -15.5380 -13.6916 -11.3721  -3.1375  -0.5354   9.0100   9.3831  10.1145

          k = 0.3355 0.5811 0.0000 (  4302 PWs)   bands (ev):

   -14.3464 -14.3464 -12.2264  -1.8095  -1.8095   8.7721  10.8950  10.8950

     the Fermi energy is    -1.7716 ev

!    total energy              =     -23.90932061 Ry
     estimated scf accuracy    <          6.1E-10 Ry
     smearing contrib. (-TS)   =      -0.00018232 Ry
     internal energy E=F+TS    =     -23.90913828 Ry

     The total energy is F=E-TS. E is the sum of the following terms:
     one-electron contribution =    -154.80919488 Ry
     hartree contribution      =      78.84308233 Ry
     xc contribution           =      -8.26729859 Ry
     ewald contribution        =      60.32427285 Ry

     convergence has been achieved in  29 iterations

     negative rho (up, down):  1.200E-04 0.000E+00

     Forces acting on atoms (cartesian axes, Ry/au):

     atom    1 type  1   force =     0.00000000    0.00000000    0.00000000
     atom    2 type  1   force =    -0.00000000   -0.00000000    0.00000000

     Total force =     0.000000     Total SCF correction =     0.000000


     Computing stress (Cartesian axis) and pressure


     negative rho (up, down):  1.200E-04 0.000E+00
          total   stress  (Ry/bohr**3)                   (kbar)     P=      -14.59
  -0.00014729  -0.00000000  -0.00000000          -21.67       -0.00       -0.00
  -0.00000000  -0.00014729   0.00000000           -0.00      -21.67        0.00
   0.00000000   0.00000000  -0.00000288            0.00        0.00       -0.42

     Energy error            =      1.4E-03 Ry
     Gradient error          =      1.4E-25 Ry/Bohr
     Cell gradient error     =      2.2E+01 kbar

     number of scf cycles    =   2
     number of bfgs steps    =   1

     enthalpy           old  =     -23.9078949776 Ry
     enthalpy           new  =     -23.9093206080 Ry

     CASE: enthalpy          _new < enthalpy          _old

     new trust radius        =       0.0331208888 bohr
     new conv_thr            =            1.0E-11 Ry

     new unit-cell volume =    533.19588 a.u.^3 (    79.01148 Ang^3 )
     density =      0.50484 g/cm^3

CELL_PARAMETERS (alat=  4.72431531)
   0.986493297  -0.000000000   0.000000000
  -0.493246649   0.854328256   0.000000000
   0.000000000   0.000000000   6.000000000

ATOMIC_POSITIONS (crystal)
C                0.3333333330        0.6666666660        0.5000000000
C                0.6666666660        0.3333333330        0.5000000000



     Writing config-only to output data dir ../tmp/gr.save/ :
     XML data file
     NEW-OLD atomic charge density approx. for the potential
     New effective cutoffs (rho, wfc):  246.32   61.61

     Check: negative core charge=   -0.000003

     negative rho (up, down):  1.324E-04 0.000E+00

     total cpu time spent up to now is       78.1 secs

     Self-consistent Calculation

     iteration #  1     ecut=    60.00 Ry     beta= 0.70
     Davidson diagonalization with overlap
     ethr =  1.00E-06,  avg # of iterations =  6.7

     negative rho (up, down):  1.250E-04 0.000E+00

     total cpu time spent up to now is       80.3 secs

     total energy              =     -23.90993429 Ry
     estimated scf accuracy    <       0.00013250 Ry

     iteration #  2     ecut=    60.00 Ry     beta= 0.70
     Davidson diagonalization with overlap
     ethr =  1.66E-06,  avg # of iterations =  1.2

     negative rho (up, down):  1.200E-04 0.000E+00

     total cpu time spent up to now is       81.0 secs

     total energy              =     -23.90994286 Ry
     estimated scf accuracy    <       0.00000366 Ry

     iteration #  3     ecut=    60.00 Ry     beta= 0.70
     Davidson diagonalization with overlap
     ethr =  4.57E-08,  avg # of iterations =  5.3

     negative rho (up, down):  1.210E-04 0.000E+00

     total cpu time spent up to now is       82.6 secs

     total energy              =     -23.90995956 Ry
     estimated scf accuracy    <       0.00000926 Ry

     iteration #  4     ecut=    60.00 Ry     beta= 0.70
     Davidson diagonalization with overlap
     ethr =  4.57E-08,  avg # of iterations =  1.2

     negative rho (up, down):  1.216E-04 0.000E+00

     total cpu time spent up to now is       83.8 secs

     total energy              =     -23.90995875 Ry
     estimated scf accuracy    <       0.00000174 Ry

     iteration #  5     ecut=    60.00 Ry     beta= 0.70
     Davidson diagonalization with overlap
     ethr =  2.18E-08,  avg # of iterations =  4.1

     negative rho (up, down):  1.220E-04 0.000E+00

     total cpu time spent up to now is       84.9 secs

     total energy              =     -23.90996053 Ry
     estimated scf accuracy    <       0.00000050 Ry

     iteration #  6     ecut=    60.00 Ry     beta= 0.70
     Davidson diagonalization with overlap
     ethr =  6.22E-09,  avg # of iterations =  3.2

     negative rho (up, down):  1.221E-04 0.000E+00

     total cpu time spent up to now is       85.9 secs

     total energy              =     -23.90996086 Ry
     estimated scf accuracy    <       0.00000131 Ry

     iteration #  7     ecut=    60.00 Ry     beta= 0.70
     Davidson diagonalization with overlap
     ethr =  6.22E-09,  avg # of iterations =  1.4

     negative rho (up, down):  1.211E-04 0.000E+00

     total cpu time spent up to now is       86.8 secs

     total energy              =     -23.90995993 Ry
     estimated scf accuracy    <       0.00000172 Ry

     iteration #  8     ecut=    60.00 Ry     beta= 0.70
     Davidson diagonalization with overlap
     ethr =  6.22E-09,  avg # of iterations =  1.7

     negative rho (up, down):  1.210E-04 0.000E+00

     total cpu time spent up to now is       87.5 secs

     total energy              =     -23.90995998 Ry
     estimated scf accuracy    <       0.00000019 Ry

     iteration #  9     ecut=    60.00 Ry     beta= 0.70
     Davidson diagonalization with overlap
     ethr =  2.39E-09,  avg # of iterations =  2.7

     negative rho (up, down):  1.211E-04 0.000E+00

     total cpu time spent up to now is       88.9 secs

     total energy              =     -23.90996004 Ry
     estimated scf accuracy    <       0.00000008 Ry

     iteration # 10     ecut=    60.00 Ry     beta= 0.70
     Davidson diagonalization with overlap
     ethr =  1.02E-09,  avg # of iterations =  2.4

     negative rho (up, down):  1.210E-04 0.000E+00

     total cpu time spent up to now is       89.7 secs

     total energy              =     -23.90996001 Ry
     estimated scf accuracy    <       0.00000009 Ry

     iteration # 11     ecut=    60.00 Ry     beta= 0.70
     Davidson diagonalization with overlap
     ethr =  1.02E-09,  avg # of iterations =  2.4

     negative rho (up, down):  1.210E-04 0.000E+00

     total cpu time spent up to now is       90.6 secs

     total energy              =     -23.90996003 Ry
     estimated scf accuracy    <       0.00000002 Ry

     iteration # 12     ecut=    60.00 Ry     beta= 0.70
     Davidson diagonalization with overlap
     ethr =  2.31E-10,  avg # of iterations =  4.2

     negative rho (up, down):  1.210E-04 0.000E+00

     total cpu time spent up to now is       91.7 secs

     total energy              =     -23.90996004 Ry
     estimated scf accuracy    <       0.00000001 Ry

     iteration # 13     ecut=    60.00 Ry     beta= 0.70
     Davidson diagonalization with overlap
     ethr =  1.78E-10,  avg # of iterations =  1.4

     negative rho (up, down):  1.211E-04 0.000E+00

     total cpu time spent up to now is       92.5 secs

     total energy              =     -23.90996004 Ry
     estimated scf accuracy    <       0.00000001 Ry

     iteration # 14     ecut=    60.00 Ry     beta= 0.70
     Davidson diagonalization with overlap
     ethr =  1.78E-10,  avg # of iterations =  2.2

     negative rho (up, down):  1.210E-04 0.000E+00

     total cpu time spent up to now is       94.0 secs

     total energy              =     -23.90996004 Ry
     estimated scf accuracy    <          5.8E-09 Ry

     iteration # 15     ecut=    60.00 Ry     beta= 0.70
     Davidson diagonalization with overlap
     ethr =  7.26E-11,  avg # of iterations =  2.3

     negative rho (up, down):  1.210E-04 0.000E+00

     total cpu time spent up to now is       95.5 secs

     total energy              =     -23.90996004 Ry
     estimated scf accuracy    <          1.1E-09 Ry

     iteration # 16     ecut=    60.00 Ry     beta= 0.70
     Davidson diagonalization with overlap
     ethr =  1.32E-11,  avg # of iterations =  4.2

     negative rho (up, down):  1.210E-04 0.000E+00

     total cpu time spent up to now is       97.2 secs

     total energy              =     -23.90996004 Ry
     estimated scf accuracy    <          7.0E-10 Ry

     iteration # 17     ecut=    60.00 Ry     beta= 0.70
     Davidson diagonalization with overlap
     ethr =  8.70E-12,  avg # of iterations =  1.6

     negative rho (up, down):  1.210E-04 0.000E+00

     total cpu time spent up to now is       97.9 secs

     total energy              =     -23.90996004 Ry
     estimated scf accuracy    <          7.9E-10 Ry

     iteration # 18     ecut=    60.00 Ry     beta= 0.70
     Davidson diagonalization with overlap
     ethr =  8.70E-12,  avg # of iterations =  1.1

     negative rho (up, down):  1.210E-04 0.000E+00

     total cpu time spent up to now is       98.6 secs

     total energy              =     -23.90996004 Ry
     estimated scf accuracy    <          7.2E-10 Ry

     iteration # 19     ecut=    60.00 Ry     beta= 0.70
     Davidson diagonalization with overlap
     ethr =  8.70E-12,  avg # of iterations =  1.0

     negative rho (up, down):  1.210E-04 0.000E+00

     total cpu time spent up to now is       99.6 secs

     total energy              =     -23.90996004 Ry
     estimated scf accuracy    <          4.4E-10 Ry

     iteration # 20     ecut=    60.00 Ry     beta= 0.70
     Davidson diagonalization with overlap
     ethr =  5.46E-12,  avg # of iterations =  1.1

     negative rho (up, down):  1.210E-04 0.000E+00

     total cpu time spent up to now is      101.0 secs

     total energy              =     -23.90996004 Ry
     estimated scf accuracy    <          3.2E-10 Ry

     iteration # 21     ecut=    60.00 Ry     beta= 0.70
     Davidson diagonalization with overlap
     ethr =  4.03E-12,  avg # of iterations =  1.1

     negative rho (up, down):  1.210E-04 0.000E+00

     total cpu time spent up to now is      101.8 secs

     total energy              =     -23.90996004 Ry
     estimated scf accuracy    <          4.0E-10 Ry

     iteration # 22     ecut=    60.00 Ry     beta= 0.70
     Davidson diagonalization with overlap
     ethr =  4.03E-12,  avg # of iterations =  1.9

     negative rho (up, down):  1.210E-04 0.000E+00

     total cpu time spent up to now is      102.7 secs

     End of self-consistent calculation

          k = 0.0000 0.0000 0.0000 (  4287 PWs)   bands (ev):

   -21.2356  -9.3417  -4.8007  -4.8007   1.4081   2.2275   2.4799   4.4566

          k = 0.0000 0.0975 0.0000 (  4260 PWs)   bands (ev):

   -21.0719  -9.1458  -5.4489  -5.1381   1.6321   2.4531   2.7060   4.6795

          k = 0.0000 0.1951 0.0000 (  4270 PWs)   bands (ev):

   -20.5828  -8.5637  -7.0811  -5.9283   2.3039   3.1284   3.3843   5.3451

          k = 0.0000 0.2926 0.0000 (  4280 PWs)   bands (ev):

   -19.7739  -9.1737  -7.6145  -6.8060   3.4217   4.2394   4.5139   5.5108

          k = 0.0000 0.3902 0.0000 (  4278 PWs)   bands (ev):

   -18.6572 -11.3718  -7.5378  -6.3484   3.1781   4.9755   5.8433   5.9404

          k = 0.0000 0.4877 0.0000 (  4316 PWs)   bands (ev):

   -17.2640 -13.4677  -8.0097  -4.9284   1.0473   5.7249   6.9915   7.8407

          k =-0.0000-0.5853 0.0000 (  4320 PWs)   bands (ev):

   -16.0029 -14.9708  -8.1717  -4.0857  -0.0481   5.6466   9.3170   9.4530

          k = 0.0845 0.1463 0.0000 (  4283 PWs)   bands (ev):

   -20.7456  -8.7568  -6.4792  -5.8134   2.0802   2.9036   3.1583   5.1242

          k = 0.0845 0.2439 0.0000 (  4269 PWs)   bands (ev):

   -20.0965  -8.1839  -7.9899  -6.8087   2.9757   3.8015   4.0630   6.0073

          k = 0.0845 0.3414 0.0000 (  4299 PWs)   bands (ev):

   -19.1336 -10.2517  -7.6929  -6.8758   4.1866   4.3147   5.1693   5.4178

          k = 0.0845 0.4389 0.0000 (  4319 PWs)   bands (ev):

   -17.8756 -12.3698  -8.3264  -5.4987   1.9922   6.0753   6.5666   6.9381

          k = 0.0845 0.5365 0.0000 (  4307 PWs)   bands (ev):

   -16.3988 -14.3072  -8.6541  -4.1920   0.2272   6.3823   8.2984   9.1136

          k = 0.1689 0.2926 0.0000 (  4306 PWs)   bands (ev):

   -19.2935  -9.5109  -8.1669  -7.0543   4.0933   4.6433   4.9182   5.1941

          k = 0.1689 0.3902 0.0000 (  4303 PWs)   bands (ev):

   -18.1877 -11.2340  -9.2206  -5.8034   2.6992   5.6498   6.4627   6.7743

          k = 0.1689 0.4877 0.0000 (  4299 PWs)   bands (ev):

   -16.8144 -13.1406  -9.7953  -4.3793   0.7907   7.6212   8.2831   8.3682

          k = 0.1689 0.5853 0.0000 (  4296 PWs)   bands (ev):

   -15.5825 -14.5724  -9.9798  -3.4884  -0.2752   8.1848   9.8565   9.8889

          k = 0.2534 0.4389 0.0000 (  4304 PWs)   bands (ev):

   -16.9618 -12.2671 -10.7002  -4.4631   1.0873   7.4090   8.0875   8.5748

          k = 0.2534 0.5365 0.0000 (  4297 PWs)   bands (ev):

   -15.5422 -13.6854 -11.4063  -3.0800  -0.4302   9.1362   9.5231  10.4386

          k = 0.3379 0.5853 0.0000 (  4302 PWs)   bands (ev):

   -14.3273 -14.3273 -12.2999  -1.7263  -1.7263   8.8863  11.1284  11.1284

     the Fermi energy is    -1.6884 ev

!    total energy              =     -23.90996004 Ry
     estimated scf accuracy    <          6.9E-13 Ry
     smearing contrib. (-TS)   =      -0.00018232 Ry
     internal energy E=F+TS    =     -23.90977772 Ry

     The total energy is F=E-TS. E is the sum of the following terms:
     one-electron contribution =    -157.09274363 Ry
     hartree contribution      =      80.00605478 Ry
     xc contribution           =      -8.29915836 Ry
     ewald contribution        =      61.47606949 Ry

     convergence has been achieved in  22 iterations

     negative rho (up, down):  1.210E-04 0.000E+00

     Forces acting on atoms (cartesian axes, Ry/au):

     atom    1 type  1   force =     0.00000000    0.00000000    0.00000000
     atom    2 type  1   force =    -0.00000000   -0.00000000    0.00000000

     Total force =     0.000000     Total SCF correction =     0.000000


     Computing stress (Cartesian axis) and pressure


     negative rho (up, down):  1.210E-04 0.000E+00
          total   stress  (Ry/bohr**3)                   (kbar)     P=       -1.86
  -0.00001771  -0.00000000   0.00000000           -2.60       -0.00        0.00
  -0.00000000  -0.00001771   0.00000000           -0.00       -2.60        0.00
   0.00000000   0.00000000  -0.00000251            0.00        0.00       -0.37

     Energy error            =      6.4E-04 Ry
     Gradient error          =      2.8E-25 Ry/Bohr
     Cell gradient error     =      2.6E+00 kbar

     number of scf cycles    =   3
     number of bfgs steps    =   2

     enthalpy           old  =     -23.9093206080 Ry
     enthalpy           new  =     -23.9099600404 Ry

     CASE: enthalpy          _new < enthalpy          _old

     new trust radius        =       0.0044892566 bohr
     new conv_thr            =            1.0E-11 Ry

     new unit-cell volume =    532.15977 a.u.^3 (    78.85794 Ang^3 )
     density =      0.50583 g/cm^3

CELL_PARAMETERS (alat=  4.72431531)
   0.985534349  -0.000000000   0.000000000
  -0.492767174   0.853497783   0.000000000
   0.000000000   0.000000000   6.000000000

ATOMIC_POSITIONS (crystal)
C                0.3333333330        0.6666666660        0.5000000000
C                0.6666666660        0.3333333330        0.5000000000



     Writing config-only to output data dir ../tmp/gr.save/ :
     XML data file
     NEW-OLD atomic charge density approx. for the potential
     New effective cutoffs (rho, wfc):  246.80   61.73

     Check: negative core charge=   -0.000003

     negative rho (up, down):  1.227E-04 0.000E+00

     total cpu time spent up to now is      103.8 secs

     Self-consistent Calculation

     iteration #  1     ecut=    60.00 Ry     beta= 0.70
     Davidson diagonalization with overlap
     ethr =  1.00E-06,  avg # of iterations =  3.0

     Threshold (ethr) on eigenvalues was too large:
     Diagonalizing with lowered threshold

     Davidson diagonalization with overlap
     ethr =  3.07E-08,  avg # of iterations =  4.1

     negative rho (up, down):  1.216E-04 0.000E+00

     total cpu time spent up to now is      106.2 secs

     total energy              =     -23.90996845 Ry
     estimated scf accuracy    <       0.00000245 Ry

     iteration #  2     ecut=    60.00 Ry     beta= 0.70
     Davidson diagonalization with overlap
     ethr =  3.06E-08,  avg # of iterations =  1.1

     negative rho (up, down):  1.209E-04 0.000E+00

     total cpu time spent up to now is      106.9 secs

     total energy              =     -23.90996862 Ry
     estimated scf accuracy    <       0.00000007 Ry

     iteration #  3     ecut=    60.00 Ry     beta= 0.70
     Davidson diagonalization with overlap
     ethr =  8.38E-10,  avg # of iterations =  5.5

     negative rho (up, down):  1.211E-04 0.000E+00

     total cpu time spent up to now is      108.4 secs

     total energy              =     -23.90996893 Ry
     estimated scf accuracy    <       0.00000017 Ry

     iteration #  4     ecut=    60.00 Ry     beta= 0.70
     Davidson diagonalization with overlap
     ethr =  8.38E-10,  avg # of iterations =  1.1

     negative rho (up, down):  1.211E-04 0.000E+00

     total cpu time spent up to now is      109.1 secs

     total energy              =     -23.90996892 Ry
     estimated scf accuracy    <       0.00000002 Ry

     iteration #  5     ecut=    60.00 Ry     beta= 0.70
     Davidson diagonalization with overlap
     ethr =  2.77E-10,  avg # of iterations =  4.0

     negative rho (up, down):  1.211E-04 0.000E+00

     total cpu time spent up to now is      110.5 secs

     total energy              =     -23.90996895 Ry
     estimated scf accuracy    <       0.00000001 Ry

     iteration #  6     ecut=    60.00 Ry     beta= 0.70
     Davidson diagonalization with overlap
     ethr =  1.48E-10,  avg # of iterations =  1.3

     negative rho (up, down):  1.212E-04 0.000E+00

     total cpu time spent up to now is      111.3 secs

     total energy              =     -23.90996895 Ry
     estimated scf accuracy    <       0.00000001 Ry

     iteration #  7     ecut=    60.00 Ry     beta= 0.70
     Davidson diagonalization with overlap
     ethr =  1.48E-10,  avg # of iterations =  1.0

     negative rho (up, down):  1.211E-04 0.000E+00

     total cpu time spent up to now is      112.0 secs

     total energy              =     -23.90996894 Ry
     estimated scf accuracy    <       0.00000002 Ry

     iteration #  8     ecut=    60.00 Ry     beta= 0.70
     Davidson diagonalization with overlap
     ethr =  1.48E-10,  avg # of iterations =  1.1

     negative rho (up, down):  1.210E-04 0.000E+00

     total cpu time spent up to now is      112.7 secs

     total energy              =     -23.90996894 Ry
     estimated scf accuracy    <          2.0E-09 Ry

     iteration #  9     ecut=    60.00 Ry     beta= 0.70
     Davidson diagonalization with overlap
     ethr =  2.48E-11,  avg # of iterations =  4.0

     negative rho (up, down):  1.210E-04 0.000E+00

     total cpu time spent up to now is      114.1 secs

     total energy              =     -23.90996894 Ry
     estimated scf accuracy    <          1.0E-10 Ry

     iteration # 10     ecut=    60.00 Ry     beta= 0.70
     Davidson diagonalization with overlap
     ethr =  1.30E-12,  avg # of iterations =  4.7

     negative rho (up, down):  1.210E-04 0.000E+00

     total cpu time spent up to now is      115.5 secs

     total energy              =     -23.90996894 Ry
     estimated scf accuracy    <          7.5E-11 Ry

     iteration # 11     ecut=    60.00 Ry     beta= 0.70
     Davidson diagonalization with overlap
     ethr =  9.43E-13,  avg # of iterations =  1.4

     negative rho (up, down):  1.210E-04 0.000E+00

     total cpu time spent up to now is      116.3 secs

     total energy              =     -23.90996894 Ry
     estimated scf accuracy    <          7.6E-11 Ry

     iteration # 12     ecut=    60.00 Ry     beta= 0.70
     Davidson diagonalization with overlap
     ethr =  9.43E-13,  avg # of iterations =  1.0

     negative rho (up, down):  1.211E-04 0.000E+00

     total cpu time spent up to now is      117.1 secs

     total energy              =     -23.90996894 Ry
     estimated scf accuracy    <          9.6E-11 Ry

     iteration # 13     ecut=    60.00 Ry     beta= 0.70
     Davidson diagonalization with overlap
     ethr =  9.43E-13,  avg # of iterations =  1.1

     negative rho (up, down):  1.211E-04 0.000E+00

     total cpu time spent up to now is      118.0 secs

     total energy              =     -23.90996894 Ry
     estimated scf accuracy    <          3.3E-11 Ry

     iteration # 14     ecut=    60.00 Ry     beta= 0.70
     Davidson diagonalization with overlap
     ethr =  4.12E-13,  avg # of iterations =  1.0

     negative rho (up, down):  1.211E-04 0.000E+00

     total cpu time spent up to now is      118.9 secs

     total energy              =     -23.90996894 Ry
     estimated scf accuracy    <          1.2E-11 Ry

     iteration # 15     ecut=    60.00 Ry     beta= 0.70
     Davidson diagonalization with overlap
     ethr =  1.54E-13,  avg # of iterations =  2.1

     negative rho (up, down):  1.211E-04 0.000E+00

     total cpu time spent up to now is      120.1 secs

     total energy              =     -23.90996894 Ry
     estimated scf accuracy    <          3.0E-11 Ry

     iteration # 16     ecut=    60.00 Ry     beta= 0.70
     Davidson diagonalization with overlap
     ethr =  1.54E-13,  avg # of iterations =  1.2

     negative rho (up, down):  1.211E-04 0.000E+00

     total cpu time spent up to now is      120.8 secs

     total energy              =     -23.90996894 Ry
     estimated scf accuracy    <          1.4E-11 Ry

     iteration # 17     ecut=    60.00 Ry     beta= 0.70
     Davidson diagonalization with overlap
     ethr =  1.54E-13,  avg # of iterations =  1.1

     negative rho (up, down):  1.211E-04 0.000E+00

     total cpu time spent up to now is      121.8 secs

     total energy              =     -23.90996894 Ry
     estimated scf accuracy    <          1.4E-11 Ry

     iteration # 18     ecut=    60.00 Ry     beta= 0.70
     Davidson diagonalization with overlap
     ethr =  1.54E-13,  avg # of iterations =  1.1

     negative rho (up, down):  1.211E-04 0.000E+00

     total cpu time spent up to now is      122.6 secs

     total energy              =     -23.90996894 Ry
     estimated scf accuracy    <          4.4E-11 Ry

     iteration # 19     ecut=    60.00 Ry     beta= 0.70
     Davidson diagonalization with overlap
     ethr =  1.54E-13,  avg # of iterations =  3.7

     negative rho (up, down):  1.211E-04 0.000E+00

     total cpu time spent up to now is      123.7 secs

     End of self-consistent calculation

          k = 0.0000 0.0000 0.0000 (  4287 PWs)   bands (ev):

   -21.2476  -9.3499  -4.7883  -4.7883   1.4102   2.2297   2.4817   4.4585

          k = 0.0000 0.0976 0.0000 (  4260 PWs)   bands (ev):

   -21.0837  -9.1536  -5.4372  -5.1267   1.6346   2.4557   2.7082   4.6818

          k = 0.0000 0.1953 0.0000 (  4270 PWs)   bands (ev):

   -20.5937  -8.5701  -7.0715  -5.9193   2.3078   3.1324   3.3878   5.3488

          k = 0.0000 0.2929 0.0000 (  4280 PWs)   bands (ev):

   -19.7833  -9.1673  -7.6186  -6.7993   3.4277   4.2459   4.5196   5.5407

          k = 0.0000 0.3905 0.0000 (  4278 PWs)   bands (ev):

   -18.6647 -11.3690  -7.5330  -6.3493   3.2011   4.9847   5.8529   5.9717

          k = 0.0000 0.4882 0.0000 (  4316 PWs)   bands (ev):

   -17.2685 -13.4688  -8.0061  -4.9254   1.0637   5.7643   7.0049   7.8546

          k =-0.0000-0.5858 0.0000 (  4320 PWs)   bands (ev):

   -16.0017 -14.9781  -8.1685  -4.0800  -0.0353   5.6866   9.3351   9.4708

          k = 0.0846 0.1465 0.0000 (  4283 PWs)   bands (ev):

   -20.7567  -8.7636  -6.4685  -5.8041   2.0836   2.9072   3.1614   5.1275

          k = 0.0846 0.2441 0.0000 (  4269 PWs)   bands (ev):

   -20.1066  -8.1755  -7.9949  -6.8020   2.9808   3.8069   4.0679   6.0110

          k = 0.0846 0.3417 0.0000 (  4299 PWs)   bands (ev):

   -19.1419 -10.2466  -7.6882  -6.8781   4.2129   4.3225   5.1780   5.4254

          k = 0.0846 0.4394 0.0000 (  4319 PWs)   bands (ev):

   -17.8815 -12.3685  -8.3231  -5.4973   2.0120   6.0875   6.6054   6.9500

          k = 0.0846 0.5370 0.0000 (  4307 PWs)   bands (ev):

   -16.4008 -14.3107  -8.6515  -4.1868   0.2413   6.4231   8.3142   9.1305

          k = 0.1691 0.2929 0.0000 (  4306 PWs)   bands (ev):

   -19.3021  -9.5034  -8.1639  -7.0570   4.1006   4.6721   4.9259   5.2012

          k = 0.1691 0.3905 0.0000 (  4303 PWs)   bands (ev):

   -18.1943 -11.2295  -9.2196  -5.8029   2.7221   5.6601   6.4737   6.7845

          k = 0.1691 0.4882 0.0000 (  4299 PWs)   bands (ev):

   -16.8181 -13.1403  -9.7949  -4.3749   0.8077   7.6359   8.3252   8.3837

          k = 0.1691 0.5858 0.0000 (  4296 PWs)   bands (ev):

   -15.5809 -14.5778  -9.9796  -3.4813  -0.2616   8.2282   9.8770   9.9088

          k = 0.2537 0.4394 0.0000 (  4304 PWs)   bands (ev):

   -16.9659 -12.2625 -10.7038  -4.4591   1.1060   7.4230   8.1023   8.5886

          k = 0.2537 0.5370 0.0000 (  4297 PWs)   bands (ev):

   -15.5428 -13.6845 -11.4108  -3.0721  -0.4157   9.1535   9.5422  10.4823

          k = 0.3382 0.5858 0.0000 (  4302 PWs)   bands (ev):

   -14.3246 -14.3246 -12.3100  -1.7149  -1.7149   8.9020  11.1598  11.1598

     the Fermi energy is    -1.6769 ev

!    total energy              =     -23.90996894 Ry
     estimated scf accuracy    <          3.5E-12 Ry
     smearing contrib. (-TS)   =      -0.00018232 Ry
     internal energy E=F+TS    =     -23.90978662 Ry

     The total energy is F=E-TS. E is the sum of the following terms:
     one-electron contribution =    -157.40620771 Ry
     hartree contribution      =      80.16568211 Ry
     xc contribution           =      -8.30351482 Ry
     ewald contribution        =      61.63425380 Ry

     convergence has been achieved in  19 iterations

     negative rho (up, down):  1.211E-04 0.000E+00

     Forces acting on atoms (cartesian axes, Ry/au):

     atom    1 type  1   force =    -0.00000000    0.00000000    0.00000000
     atom    2 type  1   force =     0.00000000    0.00000000    0.00000000

     Total force =     0.000000     Total SCF correction =     0.000000


     Computing stress (Cartesian axis) and pressure


     negative rho (up, down):  1.211E-04 0.000E+00
          total   stress  (Ry/bohr**3)                   (kbar)     P=       -0.07
   0.00000055  -0.00000000   0.00000000            0.08       -0.00        0.00
   0.00000000   0.00000055   0.00000000            0.00        0.08        0.00
   0.00000000   0.00000000  -0.00000255            0.00        0.00       -0.38

     Energy error            =      8.9E-06 Ry
     Gradient error          =      1.4E-25 Ry/Bohr
     Cell gradient error     =      8.1E-02 kbar

     number of scf cycles    =   4
     number of bfgs steps    =   3

     enthalpy           old  =     -23.9099600404 Ry
     enthalpy           new  =     -23.9099689438 Ry

     CASE: enthalpy          _new < enthalpy          _old

     new trust radius        =       0.0001353690 bohr
     new conv_thr            =            1.0E-11 Ry

     new unit-cell volume =    532.19100 a.u.^3 (    78.86257 Ang^3 )
     density =      0.50580 g/cm^3

CELL_PARAMETERS (alat=  4.72431531)
   0.985563265  -0.000000000   0.000000000
  -0.492781633   0.853522825   0.000000000
   0.000000000   0.000000000   6.000000000

ATOMIC_POSITIONS (crystal)
C                0.3333333330        0.6666666660        0.5000000000
C                0.6666666660        0.3333333330        0.5000000000



     Writing config-only to output data dir ../tmp/gr.save/ :
     XML data file
     NEW-OLD atomic charge density approx. for the potential
     New effective cutoffs (rho, wfc):  246.78   61.73

     Check: negative core charge=   -0.000003

     negative rho (up, down):  1.210E-04 0.000E+00

     total cpu time spent up to now is      124.6 secs

     Self-consistent Calculation

     iteration #  1     ecut=    60.00 Ry     beta= 0.70
     Davidson diagonalization with overlap
     ethr =  1.00E-06,  avg # of iterations =  2.0

     Threshold (ethr) on eigenvalues was too large:
     Diagonalizing with lowered threshold

     Davidson diagonalization with overlap
     ethr =  3.12E-11,  avg # of iterations =  4.1

     negative rho (up, down):  1.210E-04 0.000E+00

     total cpu time spent up to now is      127.5 secs

     total energy              =     -23.90996895 Ry
     estimated scf accuracy    <          2.2E-09 Ry

     iteration #  2     ecut=    60.00 Ry     beta= 0.70
     Davidson diagonalization with overlap
     ethr =  2.81E-11,  avg # of iterations =  1.1

     negative rho (up, down):  1.211E-04 0.000E+00

     total cpu time spent up to now is      128.4 secs

     total energy              =     -23.90996895 Ry
     estimated scf accuracy    <          6.3E-11 Ry

     iteration #  3     ecut=    60.00 Ry     beta= 0.70
     Davidson diagonalization with overlap
     ethr =  7.92E-13,  avg # of iterations =  5.1

     negative rho (up, down):  1.211E-04 0.000E+00

     total cpu time spent up to now is      129.9 secs

     total energy              =     -23.90996895 Ry
     estimated scf accuracy    <          1.6E-10 Ry

     iteration #  4     ecut=    60.00 Ry     beta= 0.70
     Davidson diagonalization with overlap
     ethr =  7.92E-13,  avg # of iterations =  1.2

     negative rho (up, down):  1.210E-04 0.000E+00

     total cpu time spent up to now is      131.0 secs

     total energy              =     -23.90996895 Ry
     estimated scf accuracy    <          1.9E-11 Ry

     iteration #  5     ecut=    60.00 Ry     beta= 0.70
     Davidson diagonalization with overlap
     ethr =  2.32E-13,  avg # of iterations =  4.1

     negative rho (up, down):  1.210E-04 0.000E+00

     total cpu time spent up to now is      132.3 secs

     total energy              =     -23.90996895 Ry
     estimated scf accuracy    <          1.2E-11 Ry

     iteration #  6     ecut=    60.00 Ry     beta= 0.70
     Davidson diagonalization with overlap
     ethr =  1.44E-13,  avg # of iterations =  1.2

     negative rho (up, down):  1.210E-04 0.000E+00

     total cpu time spent up to now is      133.3 secs

     total energy              =     -23.90996895 Ry
     estimated scf accuracy    <          1.6E-11 Ry

     iteration #  7     ecut=    60.00 Ry     beta= 0.70
     Davidson diagonalization with overlap
     ethr =  1.44E-13,  avg # of iterations =  1.9

     negative rho (up, down):  1.211E-04 0.000E+00

     total cpu time spent up to now is      134.3 secs

     total energy              =     -23.90996895 Ry
     estimated scf accuracy    <          5.1E-11 Ry

     iteration #  8     ecut=    60.00 Ry     beta= 0.70
     Davidson diagonalization with overlap
     ethr =  1.44E-13,  avg # of iterations =  2.2

     negative rho (up, down):  1.211E-04 0.000E+00

     total cpu time spent up to now is      135.4 secs

     End of self-consistent calculation

          k = 0.0000 0.0000 0.0000 (  4287 PWs)   bands (ev):

   -21.2473  -9.3497  -4.7887  -4.7887   1.4101   2.2297   2.4816   4.4584

          k = 0.0000 0.0976 0.0000 (  4260 PWs)   bands (ev):

   -21.0833  -9.1534  -5.4375  -5.1271   1.6345   2.4557   2.7081   4.6818

          k = 0.0000 0.1953 0.0000 (  4270 PWs)   bands (ev):

   -20.5934  -8.5700  -7.0719  -5.9196   2.3076   3.1323   3.3877   5.3487

          k = 0.0000 0.2929 0.0000 (  4280 PWs)   bands (ev):

   -19.7831  -9.1675  -7.6185  -6.7995   3.4275   4.2457   4.5194   5.5398

          k = 0.0000 0.3905 0.0000 (  4278 PWs)   bands (ev):

   -18.6645 -11.3691  -7.5331  -6.3493   3.2004   4.9845   5.8526   5.9706

          k = 0.0000 0.4882 0.0000 (  4316 PWs)   bands (ev):

   -17.2684 -13.4688  -8.0062  -4.9255   1.0632   5.7631   7.0045   7.8542

          k =-0.0000-0.5858 0.0000 (  4320 PWs)   bands (ev):

   -16.0017 -14.9779  -8.1687  -4.0802  -0.0357   5.6854   9.3346   9.4703

          k = 0.0846 0.1465 0.0000 (  4283 PWs)   bands (ev):

   -20.7564  -8.7634  -6.4689  -5.8044   2.0835   2.9071   3.1613   5.1274

          k = 0.0846 0.2441 0.0000 (  4269 PWs)   bands (ev):

   -20.1063  -8.1758  -7.9948  -6.8022   2.9806   3.8067   4.0677   6.0091

          k = 0.0846 0.3417 0.0000 (  4299 PWs)   bands (ev):

   -19.1417 -10.2468  -7.6884  -6.8780   4.2121   4.3222   5.1778   5.4252

          k = 0.0846 0.4394 0.0000 (  4319 PWs)   bands (ev):

   -17.8813 -12.3686  -8.3232  -5.4974   2.0113   6.0871   6.6042   6.9497

          k = 0.0846 0.5370 0.0000 (  4307 PWs)   bands (ev):

   -16.4008 -14.3106  -8.6517  -4.1870   0.2409   6.4218   8.3137   9.1300

          k = 0.1691 0.2929 0.0000 (  4306 PWs)   bands (ev):

   -19.3018  -9.5037  -8.1640  -7.0569   4.1004   4.6712   4.9256   5.2010

          k = 0.1691 0.3905 0.0000 (  4303 PWs)   bands (ev):

   -18.1941 -11.2297  -9.2197  -5.8029   2.7214   5.6598   6.4733   6.7842

          k = 0.1691 0.4882 0.0000 (  4299 PWs)   bands (ev):

   -16.8180 -13.1403  -9.7950  -4.3750   0.8072   7.6355   8.3238   8.3832

          k = 0.1691 0.5858 0.0000 (  4296 PWs)   bands (ev):

   -15.5809 -14.5777  -9.9796  -3.4816  -0.2621   8.2268   9.8763   9.9082

          k = 0.2537 0.4394 0.0000 (  4304 PWs)   bands (ev):

   -16.9658 -12.2626 -10.7037  -4.4592   1.1054   7.4226   8.1019   8.5882

          k = 0.2537 0.5370 0.0000 (  4297 PWs)   bands (ev):

   -15.5428 -13.6846 -11.4107  -3.0723  -0.4162   9.1530   9.5416  10.4808

          k = 0.3382 0.5858 0.0000 (  4302 PWs)   bands (ev):

   -14.3247 -14.3247 -12.3097  -1.7152  -1.7152   8.9015  11.1588  11.1588

     the Fermi energy is    -1.6773 ev

!    total energy              =     -23.90996895 Ry
     estimated scf accuracy    <          1.8E-12 Ry
     smearing contrib. (-TS)   =      -0.00018232 Ry
     internal energy E=F+TS    =     -23.90978663 Ry

     The total energy is F=E-TS. E is the sum of the following terms:
     one-electron contribution =    -157.39673499 Ry
     hartree contribution      =      80.16085372 Ry
     xc contribution           =      -8.30338198 Ry
     ewald contribution        =      61.62947661 Ry

     convergence has been achieved in   8 iterations

     negative rho (up, down):  1.211E-04 0.000E+00

     Forces acting on atoms (cartesian axes, Ry/au):

     atom    1 type  1   force =     0.00000000    0.00000000    0.00000000
     atom    2 type  1   force =    -0.00000000    0.00000000    0.00000000

     Total force =     0.000000     Total SCF correction =     0.000000


     Computing stress (Cartesian axis) and pressure


     negative rho (up, down):  1.211E-04 0.000E+00
          total   stress  (Ry/bohr**3)                   (kbar)     P=       -0.13
  -0.00000000  -0.00000000   0.00000000           -0.00       -0.00        0.00
  -0.00000000  -0.00000000   0.00000000           -0.00       -0.00        0.00
  -0.00000000  -0.00000000  -0.00000257           -0.00       -0.00       -0.38

     Energy error            =      8.7E-09 Ry
     Gradient error          =      1.4E-25 Ry/Bohr
     Cell gradient error     =      2.2E-04 kbar

     bfgs converged in   5 scf cycles and   4 bfgs steps
     (criteria: energy <  1.0E-05 Ry, force <  1.0E-04 Ry/Bohr, cell <  5.0E-02 kbar)

     End of BFGS Geometry Optimization

     Final enthalpy           =     -23.9099689525 Ry

     File ../tmp/gr.bfgs deleted, as requested
Begin final coordinates
     new unit-cell volume =    532.19100 a.u.^3 (    78.86257 Ang^3 )
     density =      0.50580 g/cm^3

CELL_PARAMETERS (alat=  4.72431531)
   0.985563265  -0.000000000   0.000000000
  -0.492781633   0.853522825   0.000000000
   0.000000000   0.000000000   6.000000000

ATOMIC_POSITIONS (crystal)
C                0.3333333330        0.6666666660        0.5000000000
C                0.6666666660        0.3333333330        0.5000000000
End final coordinates



     Writing config-only to output data dir ../tmp/gr.save/ :
     XML data file

     Final scf calculation at the relaxed structure.
     The G-vectors are recalculated for the final unit cell
     Results may differ from those at the preceding step.

     Parallelization info
     --------------------
     sticks:   dense  smooth     PW     G-vecs:    dense   smooth      PW
     Min          90      90     27                 8372     8372    1441
     Max          91      91     28                 8387     8387    1464
     Sum         361     361    109                33523    33523    5791

     Using Slab Decomposition



     bravais-lattice index     =            4
     lattice parameter (alat)  =       4.7243  a.u.
     unit-cell volume          =     532.1910 (a.u.)^3
     number of atoms/cell      =            2
     number of atomic types    =            1
     number of electrons       =         8.00
     number of Kohn-Sham states=            8
     kinetic-energy cutoff     =      60.0000  Ry
     charge density cutoff     =     240.0000  Ry
     scf convergence threshold =      1.0E-11
     mixing beta               =       0.7000
     number of iterations used =            8  plain     mixing
     press convergence thresh. =      5.0E-02
     Exchange-correlation= PBE
                           (   1   4   3   4   0   0   0)

     celldm(1)=   4.724315  celldm(2)=   0.000000  celldm(3)=   6.000000
     celldm(4)=   0.000000  celldm(5)=   0.000000  celldm(6)=   0.000000

     crystal axes: (cart. coord. in units of alat)
               a(1) = (   0.985563  -0.000000   0.000000 )  
               a(2) = (  -0.492782   0.853523   0.000000 )  
               a(3) = (   0.000000   0.000000   6.000000 )  

     reciprocal axes: (cart. coord. in units 2 pi/alat)
               b(1) = (  1.014648  0.585807 -0.000000 )  
               b(2) = (  0.000000  1.171615 -0.000000 )  
               b(3) = ( -0.000000 -0.000000  0.166667 )  


     PseudoPot. # 1 for C  read from file:
     ../pseudo/C.pbe-n-rrkjus_psl.0.1.UPF
     MD5 check sum: 96a6a315177d77e6c95bf6fd3870f9e3
     Pseudo is Ultrasoft + core correction, Zval =  4.0
     Generated using &quot;atomic&quot; code by A. Dal Corso  v.6.3MaX
     Using radial grid of 1073 points,  4 beta functions with: 
                l(1) =   0
                l(2) =   0
                l(3) =   1
                l(4) =   1
     Q(r) pseudized with 0 coefficients 


     atomic species   valence    mass     pseudopotential
     C                 4.00    12.01070     C ( 1.00)

     24 Sym. Ops., with inversion, found



   Cartesian axes

     site n.     atom                  positions (alat units)
         1        C      tau(   1) = (   0.0000000   0.5690152   3.0000000  )
         2        C      tau(   2) = (   0.4927816   0.2845076   3.0000000  )

     number of k points=    19  Marzari-Vanderbilt smearing, width (Ry)=  0.0200
                       cart. coord. in units 2pi/alat
        k(    1) = (   0.0000000   0.0000000   0.0000000), wk =   0.0138889
        k(    2) = (   0.0000000   0.0976346   0.0000000), wk =   0.0833333
        k(    3) = (   0.0000000   0.1952691   0.0000000), wk =   0.0833333
        k(    4) = (   0.0000000   0.2929037   0.0000000), wk =   0.0833333
        k(    5) = (   0.0000000   0.3905383   0.0000000), wk =   0.0833333
        k(    6) = (   0.0000000   0.4881728   0.0000000), wk =   0.0833333
        k(    7) = (  -0.0000000  -0.5858074   0.0000000), wk =   0.0416667
        k(    8) = (   0.0845540   0.1464519   0.0000000), wk =   0.0833333
        k(    9) = (   0.0845540   0.2440864   0.0000000), wk =   0.1666667
        k(   10) = (   0.0845540   0.3417210   0.0000000), wk =   0.1666667
        k(   11) = (   0.0845540   0.4393556   0.0000000), wk =   0.1666667
        k(   12) = (   0.0845540   0.5369901   0.0000000), wk =   0.1666667
        k(   13) = (   0.1691080   0.2929037   0.0000000), wk =   0.0833333
        k(   14) = (   0.1691080   0.3905383   0.0000000), wk =   0.1666667
        k(   15) = (   0.1691080   0.4881728   0.0000000), wk =   0.1666667
        k(   16) = (   0.1691080   0.5858074   0.0000000), wk =   0.0833333
        k(   17) = (   0.2536621   0.4393556   0.0000000), wk =   0.0833333
        k(   18) = (   0.2536621   0.5369901   0.0000000), wk =   0.1666667
        k(   19) = (   0.3382161   0.5858074   0.0000000), wk =   0.0277778

     Dense  grid:    33523 G-vectors     FFT dimensions: (  24,  24, 144)

     Estimated max dynamical RAM per process >      14.88 MB

     Estimated total dynamical RAM >      59.54 MB

     Check: negative core charge=   -0.000003

     Initial potential from superposition of free atoms

     starting charge       7.9999, renormalised to       8.0000

     negative rho (up, down):  9.023E-05 0.000E+00
     Starting wfcs are    8 randomized atomic wfcs

     total cpu time spent up to now is      136.5 secs

     Self-consistent Calculation

     iteration #  1     ecut=    60.00 Ry     beta= 0.70
     Davidson diagonalization with overlap
     c_bands:  1 eigenvalues not converged
     c_bands:  2 eigenvalues not converged
     c_bands:  4 eigenvalues not converged
     c_bands:  2 eigenvalues not converged
     c_bands:  1 eigenvalues not converged
     c_bands:  1 eigenvalues not converged
     c_bands:  5 eigenvalues not converged
     c_bands:  1 eigenvalues not converged
     c_bands:  5 eigenvalues not converged
     c_bands:  2 eigenvalues not converged
     c_bands:  1 eigenvalues not converged
     c_bands:  1 eigenvalues not converged
     c_bands:  5 eigenvalues not converged
     c_bands:  2 eigenvalues not converged
     c_bands:  2 eigenvalues not converged
     c_bands:  2 eigenvalues not converged
     c_bands:  1 eigenvalues not converged
     ethr =  1.00E-06,  avg # of iterations = 45.9

     negative rho (up, down):  5.087E-05 0.000E+00

     total cpu time spent up to now is      151.3 secs

     total energy              =     -23.87789524 Ry
     estimated scf accuracy    <       0.20414223 Ry

     iteration #  2     ecut=    60.00 Ry     beta= 0.70
     Davidson diagonalization with overlap
     ethr =  2.55E-03,  avg # of iterations =  1.3

     negative rho (up, down):  3.195E-05 0.000E+00

     total cpu time spent up to now is      151.9 secs

     total energy              =     -23.89142251 Ry
     estimated scf accuracy    <       0.00504240 Ry

     iteration #  3     ecut=    60.00 Ry     beta= 0.70
     Davidson diagonalization with overlap
     c_bands:  1 eigenvalues not converged
     c_bands:  1 eigenvalues not converged
     c_bands:  1 eigenvalues not converged
     c_bands:  1 eigenvalues not converged
     c_bands:  1 eigenvalues not converged
     c_bands:  1 eigenvalues not converged
     c_bands:  1 eigenvalues not converged
     ethr =  6.30E-05,  avg # of iterations = 17.1

     negative rho (up, down):  3.520E-05 0.000E+00

     total cpu time spent up to now is      156.7 secs

     total energy              =     -23.91235685 Ry
     estimated scf accuracy    <       0.00758814 Ry

     iteration #  4     ecut=    60.00 Ry     beta= 0.70
     Davidson diagonalization with overlap
     c_bands:  1 eigenvalues not converged
     ethr =  6.30E-05,  avg # of iterations =  4.3

     negative rho (up, down):  1.192E-04 0.000E+00

     total cpu time spent up to now is      158.4 secs

     total energy              =     -23.90826666 Ry
     estimated scf accuracy    <       0.00668131 Ry

     iteration #  5     ecut=    60.00 Ry     beta= 0.70
     Davidson diagonalization with overlap
     ethr =  6.30E-05,  avg # of iterations =  2.5

     negative rho (up, down):  1.631E-04 0.000E+00

     total cpu time spent up to now is      159.5 secs

     total energy              =     -23.90946650 Ry
     estimated scf accuracy    <       0.00026510 Ry

     iteration #  6     ecut=    60.00 Ry     beta= 0.70
     Davidson diagonalization with overlap
     c_bands:  1 eigenvalues not converged
     c_bands:  1 eigenvalues not converged
     c_bands:  1 eigenvalues not converged
     ethr =  3.31E-06,  avg # of iterations = 12.6

     negative rho (up, down):  1.257E-04 0.000E+00

     total cpu time spent up to now is      162.7 secs

     total energy              =     -23.90976527 Ry
     estimated scf accuracy    <       0.00139840 Ry

     iteration #  7     ecut=    60.00 Ry     beta= 0.70
     Davidson diagonalization with overlap
     ethr =  3.31E-06,  avg # of iterations =  5.1

     negative rho (up, down):  1.326E-04 0.000E+00

     total cpu time spent up to now is      164.0 secs

     total energy              =     -23.90987453 Ry
     estimated scf accuracy    <       0.00007390 Ry

     iteration #  8     ecut=    60.00 Ry     beta= 0.70
     Davidson diagonalization with overlap
     ethr =  9.24E-07,  avg # of iterations =  4.2

     negative rho (up, down):  1.303E-04 0.000E+00

     total cpu time spent up to now is      166.4 secs

     total energy              =     -23.90991178 Ry
     estimated scf accuracy    <       0.00001195 Ry

     iteration #  9     ecut=    60.00 Ry     beta= 0.70
     Davidson diagonalization with overlap
     ethr =  1.49E-07,  avg # of iterations =  4.5

     negative rho (up, down):  1.293E-04 0.000E+00

     total cpu time spent up to now is      167.4 secs

     total energy              =     -23.90991784 Ry
     estimated scf accuracy    <       0.00000155 Ry

     iteration # 10     ecut=    60.00 Ry     beta= 0.70
     Davidson diagonalization with overlap
     ethr =  1.94E-08,  avg # of iterations =  4.4

     negative rho (up, down):  1.287E-04 0.000E+00

     total cpu time spent up to now is      168.6 secs

     total energy              =     -23.90991932 Ry
     estimated scf accuracy    <       0.00000110 Ry

     iteration # 11     ecut=    60.00 Ry     beta= 0.70
     Davidson diagonalization with overlap
     ethr =  1.38E-08,  avg # of iterations =  1.4

     negative rho (up, down):  1.273E-04 0.000E+00

     total cpu time spent up to now is      169.9 secs

     total energy              =     -23.90991929 Ry
     estimated scf accuracy    <       0.00000053 Ry

     iteration # 12     ecut=    60.00 Ry     beta= 0.70
     Davidson diagonalization with overlap
     ethr =  6.62E-09,  avg # of iterations =  3.2

     negative rho (up, down):  1.275E-04 0.000E+00

     total cpu time spent up to now is      170.9 secs

     total energy              =     -23.90991936 Ry
     estimated scf accuracy    <       0.00000040 Ry

     iteration # 13     ecut=    60.00 Ry     beta= 0.70
     Davidson diagonalization with overlap
     ethr =  4.97E-09,  avg # of iterations =  1.3

     negative rho (up, down):  1.272E-04 0.000E+00

     total cpu time spent up to now is      171.7 secs

     total energy              =     -23.90991932 Ry
     estimated scf accuracy    <       0.00000011 Ry

     iteration # 14     ecut=    60.00 Ry     beta= 0.70
     Davidson diagonalization with overlap
     ethr =  1.44E-09,  avg # of iterations =  3.4

     negative rho (up, down):  1.271E-04 0.000E+00

     total cpu time spent up to now is      172.7 secs

     total energy              =     -23.90991938 Ry
     estimated scf accuracy    <          1.2E-09 Ry

     iteration # 15     ecut=    60.00 Ry     beta= 0.70
     Davidson diagonalization with overlap
     ethr =  1.45E-11,  avg # of iterations =  7.8

     negative rho (up, down):  1.272E-04 0.000E+00

     total cpu time spent up to now is      174.5 secs

     total energy              =     -23.90991938 Ry
     estimated scf accuracy    <       0.00000007 Ry

     iteration # 16     ecut=    60.00 Ry     beta= 0.70
     Davidson diagonalization with overlap
     ethr =  1.45E-11,  avg # of iterations =  5.1

     negative rho (up, down):  1.272E-04 0.000E+00

     total cpu time spent up to now is      176.2 secs

     total energy              =     -23.90991938 Ry
     estimated scf accuracy    <          2.2E-09 Ry

     iteration # 17     ecut=    60.00 Ry     beta= 0.70
     Davidson diagonalization with overlap
     ethr =  1.45E-11,  avg # of iterations =  1.3

     negative rho (up, down):  1.272E-04 0.000E+00

     total cpu time spent up to now is      176.8 secs

     total energy              =     -23.90991938 Ry
     estimated scf accuracy    <          1.9E-09 Ry

     iteration # 18     ecut=    60.00 Ry     beta= 0.70
     Davidson diagonalization with overlap
     ethr =  1.45E-11,  avg # of iterations =  2.0

     negative rho (up, down):  1.272E-04 0.000E+00

     total cpu time spent up to now is      178.2 secs

     total energy              =     -23.90991938 Ry
     estimated scf accuracy    <          5.0E-11 Ry

     iteration # 19     ecut=    60.00 Ry     beta= 0.70
     Davidson diagonalization with overlap
     ethr =  6.22E-13,  avg # of iterations =  5.4

     negative rho (up, down):  1.272E-04 0.000E+00

     total cpu time spent up to now is      179.7 secs

     total energy              =     -23.90991938 Ry
     estimated scf accuracy    <          1.7E-11 Ry

     iteration # 20     ecut=    60.00 Ry     beta= 0.70
     Davidson diagonalization with overlap
     ethr =  2.09E-13,  avg # of iterations =  1.4

     negative rho (up, down):  1.272E-04 0.000E+00

     total cpu time spent up to now is      180.7 secs

     total energy              =     -23.90991938 Ry
     estimated scf accuracy    <          1.4E-11 Ry

     iteration # 21     ecut=    60.00 Ry     beta= 0.70
     Davidson diagonalization with overlap
     ethr =  1.70E-13,  avg # of iterations =  1.1

     negative rho (up, down):  1.272E-04 0.000E+00

     total cpu time spent up to now is      181.6 secs

     End of self-consistent calculation

          k = 0.0000 0.0000 0.0000 (  4149 PWs)   bands (ev):

   -21.2473  -9.3496  -4.7885  -4.7885   1.4137   2.2348   2.4906   4.4652

          k = 0.0000 0.0976 0.0000 (  4170 PWs)   bands (ev):

   -21.0834  -9.1534  -5.4374  -5.1270   1.6381   2.4607   2.7171   4.6886

          k = 0.0000 0.1953 0.0000 (  4194 PWs)   bands (ev):

   -20.5934  -8.5699  -7.0718  -5.9195   2.3111   3.1373   3.3968   5.3559

          k = 0.0000 0.2929 0.0000 (  4186 PWs)   bands (ev):

   -19.7831  -9.1674  -7.6185  -6.7995   3.4308   4.2505   4.5287   5.5407

          k = 0.0000 0.3905 0.0000 (  4180 PWs)   bands (ev):

   -18.6645 -11.3690  -7.5331  -6.3492   3.2004   4.9875   5.8575   5.9768

          k = 0.0000 0.4882 0.0000 (  4172 PWs)   bands (ev):

   -17.2683 -13.4687  -8.0061  -4.9254   1.0632   5.7632   7.0073   7.8617

          k =-0.0000-0.5858 0.0000 (  4184 PWs)   bands (ev):

   -16.0017 -14.9778  -8.1686  -4.0801  -0.0357   5.6855   9.3374   9.4721

          k = 0.0846 0.1465 0.0000 (  4169 PWs)   bands (ev):

   -20.7564  -8.7634  -6.4688  -5.8043   2.0869   2.9121   3.1704   5.1343

          k = 0.0846 0.2441 0.0000 (  4180 PWs)   bands (ev):

   -20.1063  -8.1757  -7.9948  -6.8021   2.9840   3.8117   4.0769   6.0115

          k = 0.0846 0.3417 0.0000 (  4175 PWs)   bands (ev):

   -19.1417 -10.2467  -7.6883  -6.8780   4.2122   4.3254   5.1826   5.4350

          k = 0.0846 0.4394 0.0000 (  4187 PWs)   bands (ev):

   -17.8813 -12.3685  -8.3231  -5.4973   2.0114   6.0898   6.6048   6.9557

          k = 0.0846 0.5370 0.0000 (  4195 PWs)   bands (ev):

   -16.4007 -14.3105  -8.6516  -4.1870   0.2409   6.4219   8.3163   9.1341

          k = 0.1691 0.2929 0.0000 (  4170 PWs)   bands (ev):

   -19.3018  -9.5035  -8.1639  -7.0569   4.1036   4.6712   4.9304   5.2102

          k = 0.1691 0.3905 0.0000 (  4172 PWs)   bands (ev):

   -18.1941 -11.2296  -9.2196  -5.8029   2.7214   5.6628   6.4778   6.7937

          k = 0.1691 0.4882 0.0000 (  4170 PWs)   bands (ev):

   -16.8179 -13.1402  -9.7949  -4.3750   0.8072   7.6380   8.3244   8.3868

          k = 0.1691 0.5858 0.0000 (  4178 PWs)   bands (ev):

   -15.5809 -14.5776  -9.9795  -3.4815  -0.2620   8.2269   9.8776   9.9106

          k = 0.2537 0.4394 0.0000 (  4156 PWs)   bands (ev):

   -16.9658 -12.2626 -10.7036  -4.4592   1.1054   7.4252   8.1052   8.5978

          k = 0.2537 0.5370 0.0000 (  4161 PWs)   bands (ev):

   -15.5427 -13.6845 -11.4106  -3.0723  -0.4162   9.1533   9.5436  10.4825

          k = 0.3382 0.5858 0.0000 (  4152 PWs)   bands (ev):

   -14.3246 -14.3246 -12.3096  -1.7152  -1.7152   8.9015  11.1597  11.1598

     the Fermi energy is    -1.6773 ev

!    total energy              =     -23.90991938 Ry
     estimated scf accuracy    <          7.3E-12 Ry
     smearing contrib. (-TS)   =      -0.00018232 Ry
     internal energy E=F+TS    =     -23.90973706 Ry

     The total energy is F=E-TS. E is the sum of the following terms:
     one-electron contribution =    -157.39666065 Ry
     hartree contribution      =      80.16085139 Ry
     xc contribution           =      -8.30340441 Ry
     ewald contribution        =      61.62947661 Ry

     convergence has been achieved in  21 iterations

     negative rho (up, down):  1.272E-04 0.000E+00

     Forces acting on atoms (cartesian axes, Ry/au):

     atom    1 type  1   force =    -0.00000000   -0.00000000    0.00000000
     atom    2 type  1   force =    -0.00000000   -0.00000000    0.00000000

     Total force =     0.000000     Total SCF correction =     0.000000


     Computing stress (Cartesian axis) and pressure


     negative rho (up, down):  1.272E-04 0.000E+00
          total   stress  (Ry/bohr**3)                   (kbar)     P=       -0.16
  -0.00000030  -0.00000000   0.00000000           -0.04       -0.00        0.00
  -0.00000000  -0.00000030  -0.00000000           -0.00       -0.04       -0.00
   0.00000000   0.00000000  -0.00000264            0.00        0.00       -0.39


     Writing all to output data dir ../tmp/gr.save/ :
     XML data file, charge density, pseudopotentials, collected wavefunctions

     init_run     :      1.09s CPU      1.15s WALL (       2 calls)
     electrons    :    167.67s CPU    176.81s WALL (       6 calls)
     update_pot   :      0.18s CPU      0.21s WALL (       4 calls)
     forces       :      1.09s CPU      1.24s WALL (       6 calls)
     stress       :      2.49s CPU      2.64s WALL (       6 calls)

     Called by init_run:
     wfcinit      :      0.43s CPU      0.44s WALL (       2 calls)
     potinit      :      0.12s CPU      0.13s WALL (       2 calls)
     hinit0       :      0.30s CPU      0.30s WALL (       2 calls)

     Called by electrons:
     c_bands      :    139.51s CPU    146.51s WALL (     132 calls)
     sum_band     :     21.41s CPU     22.84s WALL (     132 calls)
     v_of_rho     :      3.86s CPU      4.20s WALL (     135 calls)
     newd         :      2.13s CPU      2.27s WALL (     135 calls)
     mix_rho      :      0.85s CPU      0.89s WALL (     132 calls)

     Called by c_bands:
     init_us_2    :      2.09s CPU      2.29s WALL (    5282 calls)
     cegterg      :    135.94s CPU    142.71s WALL (    2533 calls)

     Called by *egterg:
     cdiaghg      :      2.58s CPU      2.70s WALL (   11064 calls)
     h_psi        :     98.28s CPU    103.53s WALL (   11260 calls)
     s_psi        :      4.21s CPU      4.41s WALL (   11260 calls)
     g_psi        :      0.96s CPU      1.00s WALL (    8689 calls)

     Called by h_psi:
     h_psi:calbec :      7.85s CPU      8.19s WALL (   11260 calls)
     vloc_psi     :     85.68s CPU     90.38s WALL (   11260 calls)
                                        0.00s GPU  (   11260 calls)
     add_vuspsi   :      4.28s CPU      4.49s WALL (   11260 calls)

     General routines
     calbec       :     12.22s CPU     12.93s WALL (   15706 calls)
     fft          :      2.64s CPU      2.80s WALL (    1642 calls)
     ffts         :      0.08s CPU      0.08s WALL (     132 calls)
     fftw         :     89.30s CPU     94.39s WALL (  145574 calls)

     Parallel routines

     PWSCF        :   2m53.04s CPU   3m 2.62s WALL


   This run was terminated on:  10:34:18  13Jan2026            

=------------------------------------------------------------------------------=
   JOB DONE.
=------------------------------------------------------------------------------=
