 CRYSTAL
 PRIMVEC
    2.462300000    0.000000000    0.000000000
   -1.231150000    2.132414352    0.000000000
    0.000000000    0.000000000   10.000000000
 PRIMCOORD
           2           1
C         0.000000000    1.421609566    5.000000000
C         1.231149999    0.710804783    5.000000000
BEGIN_BLOCK_DATAGRID_3D
3D_PWSCF
BEGIN_DATAGRID_3D_UNKNOWN
          25          25          97
  0.000000  0.000000  0.000000
    2.462300    0.000000    0.000000
   -1.231150    2.132414    0.000000
    0.000000    0.000000   10.000000
 -0.554616E-05  0.526284E-07 -0.679641E-06  0.311469E-05  0.290350E-05  0.582475E-07
 -0.174144E-05 -0.347771E-05  0.203948E-05  0.238030E-05  0.154374E-05 -0.433537E-05
 -0.699954E-05 -0.433537E-05  0.154374E-05  0.238030E-05  0.203948E-05 -0.347771E-05
 -0.174144E-05  0.582475E-07  0.290350E-05  0.311469E-05 -0.679641E-06  0.526284E-07
 -0.554616E-05  0.526284E-07  0.526284E-07 -0.661189E-06 -0.135980E-05  0.889210E-06
 -0.556465E-05 -0.194215E-06  0.254854E-05  0.148104E-05 -0.383969E-06  0.150835E-05
  0.329778E-05  0.227120E-05  0.227120E-05  0.329778E-05  0.150835E-05 -0.383969E-06
  0.148104E-05  0.254854E-05 -0.194215E-06 -0.556465E-05  0.889210E-06 -0.135980E-05
 -0.661189E-06  0.526284E-07 -0.679641E-06 -0.661189E-06 -0.679641E-06 -0.135980E-05
  0.136980E-05 -0.150916E-05 -0.163893E-05  0.388380E-05  0.308189E-05 -0.248995E-06
 -0.212278E-05  0.365573E-06  0.165115E-05  0.172133E-05  0.165115E-05  0.365573E-06
 -0.212278E-05 -0.248995E-06  0.308189E-05  0.388380E-05 -0.163893E-05 -0.150916E-05
  0.136980E-05 -0.135980E-05 -0.679641E-06  0.311469E-05 -0.135980E-05 -0.135980E-05
  0.311469E-05  0.889210E-06 -0.150916E-05  0.536188E-05  0.151563E-05 -0.312845E-05
  0.169234E-05  0.284025E-05 -0.119763E-05 -0.279006E-05 -0.457362E-05 -0.457362E-05
 -0.279006E-05 -0.119763E-05  0.284025E-05  0.169234E-05 -0.312845E-05  0.151563E-05
  0.536188E-05 -0.150916E-05  0.889210E-06  0.311469E-05  0.290350E-05  0.889210E-06
  0.136980E-05  0.889210E-06  0.290350E-05 -0.556465E-05 -0.163893E-05  0.151563E-05
 -0.547847E-05 -0.617906E-06  0.778340E-06  0.191673E-06  0.550047E-06  0.318020E-05
  0.358955E-05  0.318020E-05  0.550047E-06  0.191673E-06  0.778340E-06 -0.617906E-06
 -0.547847E-05  0.151563E-05 -0.163893E-05 -0.556465E-05  0.290350E-05  0.582475E-07
 -0.556465E-05 -0.150916E-05 -0.150916E-05 -0.556465E-05  0.582475E-07 -0.194215E-06
  0.388380E-05 -0.312845E-05 -0.617906E-06 -0.485591E-05 -0.425135E-05  0.137923E-05
 -0.681382E-07  0.317943E-05  0.317943E-05 -0.681382E-07  0.137923E-05 -0.425135E-05
 -0.485591E-05 -0.617906E-06 -0.312845E-05  0.388380E-05 -0.194215E-06  0.582475E-07
 -0.174144E-05 -0.194215E-06 -0.163893E-05  0.536188E-05 -0.163893E-05 -0.194215E-06
 -0.174144E-05  0.254854E-05  0.308189E-05  0.169234E-05  0.778340E-06 -0.425135E-05
  0.431789E-05 -0.465426E-06 -0.239225E-05  0.789332E-06 -0.239225E-05 -0.465426E-06
  0.431789E-05 -0.425135E-05  0.778340E-06  0.169234E-05  0.308189E-05  0.254854E-05
 -0.174144E-05 -0.347771E-05  0.254854E-05  0.388380E-05  0.151563E-05  0.151563E-05
  0.388380E-05  0.254854E-05 -0.347771E-05  0.148104E-05 -0.248995E-06  0.284025E-05
  0.191673E-06  0.137923E-05 -0.465426E-06 -0.155296E-05 -0.119937E-06 -0.119937E-06
 -0.155296E-05 -0.465426E-06  0.137923E-05  0.191673E-06  0.284025E-05 -0.248995E-06
  0.148104E-05 -0.347771E-05  0.203948E-05  0.148104E-05  0.308189E-05 -0.312845E-05
 -0.547847E-05 -0.312845E-05  0.308189E-05  0.148104E-05  0.203948E-05 -0.383969E-06
 -0.212278E-05 -0.119763E-05  0.550047E-06 -0.681382E-07 -0.239225E-05 -0.119937E-06
 -0.366847E-05 -0.119937E-06 -0.239225E-05 -0.681382E-07  0.550047E-06 -0.119763E-05
 -0.212278E-05 -0.383969E-06  0.203948E-05  0.238030E-05 -0.383969E-06 -0.248995E-06
  0.169234E-05 -0.617906E-06 -0.617906E-06  0.169234E-05 -0.248995E-06 -0.383969E-06
  0.238030E-05  0.150835E-05  0.365573E-06 -0.279006E-05  0.318020E-05  0.317943E-05
  0.789332E-06 -0.119937E-06 -0.119937E-06  0.789332E-06  0.317943E-05  0.318020E-05
 -0.279006E-05  0.365573E-06  0.150835E-05  0.238030E-05  0.154374E-05  0.150835E-05
 -0.212278E-05  0.284025E-05  0.778340E-06 -0.485591E-05  0.778340E-06  0.284025E-05
 -0.212278E-05  0.150835E-05  0.154374E-05  0.329778E-05  0.165115E-05 -0.457362E-05
  0.358955E-05  0.317943E-05 -0.239225E-05 -0.155296E-05 -0.239225E-05  0.317943E-05
  0.358955E-05 -0.457362E-05  0.165115E-05  0.329778E-05  0.154374E-05 -0.433537E-05
  0.329778E-05  0.365573E-06 -0.119763E-05  0.191673E-06 -0.425135E-05 -0.425135E-05
  0.191673E-06 -0.119763E-05  0.365573E-06  0.329778E-05 -0.433537E-05  0.227120E-05
  0.172133E-05 -0.457362E-05  0.318020E-05 -0.681382E-07 -0.465426E-06 -0.465426E-06
 -0.681382E-07  0.318020E-05 -0.457362E-05  0.172133E-05  0.227120E-05 -0.433537E-05
 -0.699954E-05  0.227120E-05  0.165115E-05 -0.279006E-05  0.550047E-06  0.137923E-05
  0.431789E-05  0.137923E-05  0.550047E-06 -0.279006E-05  0.165115E-05  0.227120E-05
 -0.699954E-05  0.227120E-05  0.165115E-05 -0.279006E-05  0.550047E-06  0.137923E-05
  0.431789E-05  0.137923E-05  0.550047E-06 -0.279006E-05  0.165115E-05  0.227120E-05
 -0.699954E-05 -0.433537E-05  0.227120E-05  0.172133E-05 -0.457362E-05  0.318020E-05
 -0.681382E-07 -0.465426E-06 -0.465426E-06 -0.681382E-07  0.318020E-05 -0.457362E-05
  0.172133E-05  0.227120E-05 -0.433537E-05  0.329778E-05  0.365573E-06 -0.119763E-05
  0.191673E-06 -0.425135E-05 -0.425135E-05  0.191673E-06 -0.119763E-05  0.365573E-06
  0.329778E-05 -0.433537E-05  0.154374E-05  0.329778E-05  0.165115E-05 -0.457362E-05
  0.358955E-05  0.317943E-05 -0.239225E-05 -0.155296E-05 -0.239225E-05  0.317943E-05
  0.358955E-05 -0.457362E-05  0.165115E-05  0.329778E-05  0.154374E-05  0.150835E-05
 -0.212278E-05  0.284025E-05  0.778340E-06 -0.485591E-05  0.778340E-06  0.284025E-05
 -0.212278E-05  0.150835E-05  0.154374E-05  0.238030E-05  0.150835E-05  0.365573E-06
 -0.279006E-05  0.318020E-05  0.317943E-05  0.789332E-06 -0.119937E-06 -0.119937E-06
  0.789332E-06  0.317943E-05  0.318020E-05 -0.279006E-05  0.365573E-06  0.150835E-05
  0.238030E-05 -0.383969E-06 -0.248995E-06  0.169234E-05 -0.617906E-06 -0.617906E-06
  0.169234E-05 -0.248995E-06 -0.383969E-06  0.238030E-05  0.203948E-05 -0.383969E-06
 -0.212278E-05 -0.119763E-05  0.550047E-06 -0.681382E-07 -0.239225E-05 -0.119937E-06
 -0.366847E-05 -0.119937E-06 -0.239225E-05 -0.681382E-07  0.550047E-06 -0.119763E-05
 -0.212278E-05 -0.383969E-06  0.203948E-05  0.148104E-05  0.308189E-05 -0.312845E-05
 -0.547847E-05 -0.312845E-05  0.308189E-05  0.148104E-05  0.203948E-05 -0.347771E-05
  0.148104E-05 -0.248995E-06  0.284025E-05  0.191673E-06  0.137923E-05 -0.465426E-06
 -0.155296E-05 -0.119937E-06 -0.119937E-06 -0.155296E-05 -0.465426E-06  0.137923E-05
  0.191673E-06  0.284025E-05 -0.248995E-06  0.148104E-05 -0.347771E-05  0.254854E-05
  0.388380E-05  0.151563E-05  0.151563E-05  0.388380E-05  0.254854E-05 -0.347771E-05
 -0.174144E-05  0.254854E-05  0.308189E-05  0.169234E-05  0.778340E-06 -0.425135E-05
  0.431789E-05 -0.465426E-06 -0.239225E-05  0.789332E-06 -0.239225E-05 -0.465426E-06
  0.431789E-05 -0.425135E-05  0.778340E-06  0.169234E-05  0.308189E-05  0.254854E-05
 -0.174144E-05 -0.194215E-06 -0.163893E-05  0.536188E-05 -0.163893E-05 -0.194215E-06
 -0.174144E-05  0.582475E-07 -0.194215E-06  0.388380E-05 -0.312845E-05 -0.617906E-06
 -0.485591E-05 -0.425135E-05  0.137923E-05 -0.681382E-07  0.317943E-05  0.317943E-05
 -0.681382E-07  0.137923E-05 -0.425135E-05 -0.485591E-05 -0.617906E-06 -0.312845E-05
  0.388380E-05 -0.194215E-06  0.582475E-07 -0.556465E-05 -0.150916E-05 -0.150916E-05
 -0.556465E-05  0.582475E-07  0.290350E-05 -0.556465E-05 -0.163893E-05  0.151563E-05
 -0.547847E-05 -0.617906E-06  0.778340E-06  0.191673E-06  0.550047E-06  0.318020E-05
  0.358955E-05  0.318020E-05  0.550047E-06  0.191673E-06  0.778340E-06 -0.617906E-06
 -0.547847E-05  0.151563E-05 -0.163893E-05 -0.556465E-05  0.290350E-05  0.889210E-06
  0.136980E-05  0.889210E-06  0.290350E-05  0.311469E-05  0.889210E-06 -0.150916E-05
  0.536188E-05  0.151563E-05 -0.312845E-05  0.169234E-05  0.284025E-05 -0.119763E-05
 -0.279006E-05 -0.457362E-05 -0.457362E-05 -0.279006E-05 -0.119763E-05  0.284025E-05
  0.169234E-05 -0.312845E-05  0.151563E-05  0.536188E-05 -0.150916E-05  0.889210E-06
  0.311469E-05 -0.135980E-05 -0.135980E-05  0.311469E-05 -0.679641E-06 -0.135980E-05
  0.136980E-05 -0.150916E-05 -0.163893E-05  0.388380E-05  0.308189E-05 -0.248995E-06
 -0.212278E-05  0.365573E-06  0.165115E-05  0.172133E-05  0.165115E-05  0.365573E-06
 -0.212278E-05 -0.248995E-06  0.308189E-05  0.388380E-05 -0.163893E-05 -0.150916E-05
  0.136980E-05 -0.135980E-05 -0.679641E-06 -0.661189E-06 -0.679641E-06  0.526284E-07
 -0.661189E-06 -0.135980E-05  0.889210E-06 -0.556465E-05 -0.194215E-06  0.254854E-05
  0.148104E-05 -0.383969E-06  0.150835E-05  0.329778E-05  0.227120E-05  0.227120E-05
  0.329778E-05  0.150835E-05 -0.383969E-06  0.148104E-05  0.254854E-05 -0.194215E-06
 -0.556465E-05  0.889210E-06 -0.135980E-05 -0.661189E-06  0.526284E-07  0.526284E-07
 -0.554616E-05  0.526284E-07 -0.679641E-06  0.311469E-05  0.290350E-05  0.582475E-07
 -0.174144E-05 -0.347771E-05  0.203948E-05  0.238030E-05  0.154374E-05 -0.433537E-05
 -0.699954E-05 -0.433537E-05  0.154374E-05  0.238030E-05  0.203948E-05 -0.347771E-05
 -0.174144E-05  0.582475E-07  0.290350E-05  0.311469E-05 -0.679641E-06  0.526284E-07
 -0.554616E-05 -0.304756E-05  0.206475E-05  0.246437E-06 -0.123440E-05  0.174769E-05
  0.443562E-05 -0.840553E-06 -0.260694E-05  0.921088E-06 -0.196665E-05 -0.187532E-05
 -0.133359E-05  0.136647E-05 -0.133359E-05 -0.187532E-05 -0.196665E-05  0.921088E-06
 -0.260694E-05 -0.840553E-06  0.443562E-05  0.174769E-05 -0.123440E-05  0.246437E-06
  0.206475E-05 -0.304756E-05  0.206475E-05  0.206475E-05  0.152131E-05 -0.141164E-05
 -0.634934E-07 -0.747982E-06  0.122998E-05 -0.699309E-06  0.226710E-06 -0.896770E-06
 -0.866669E-06 -0.103722E-05  0.943509E-06  0.943509E-06 -0.103722E-05 -0.866669E-06
 -0.896770E-06  0.226710E-06 -0.699309E-06  0.122998E-05 -0.747982E-06 -0.634934E-07
 -0.141164E-05  0.152131E-05  0.206475E-05  0.246437E-06  0.152131E-05  0.246437E-06
 -0.141164E-05  0.208304E-05  0.517132E-06 -0.169819E-05 -0.436451E-06 -0.192709E-05
 -0.178255E-05  0.158431E-06  0.263427E-06 -0.833775E-06  0.236556E-06 -0.833775E-06
  0.263427E-06  0.158431E-06 -0.178255E-05 -0.192709E-05 -0.436451E-06 -0.169819E-05
  0.517132E-06  0.208304E-05 -0.141164E-05  0.246437E-06 -0.123440E-05 -0.141164E-05
 -0.141164E-05 -0.123440E-05 -0.634934E-07  0.517132E-06  0.112377E-05 -0.292430E-06
 -0.167742E-05 -0.166414E-05  0.321232E-06  0.581025E-06  0.550102E-06 -0.129836E-06
 -0.129836E-06  0.550102E-06  0.581025E-06  0.321232E-06 -0.166414E-05 -0.167742E-05
 -0.292430E-06  0.112377E-05  0.517132E-06 -0.634934E-07 -0.123440E-05  0.174769E-05
 -0.634934E-07  0.208304E-05 -0.634934E-07  0.174769E-05 -0.747982E-06 -0.169819E-05
 -0.292430E-06  0.209772E-05  0.404353E-05  0.822458E-06 -0.678020E-06 -0.312115E-07
  0.119260E-05 -0.105156E-05  0.119260E-05 -0.312115E-07 -0.678020E-06  0.822458E-06
  0.404353E-05  0.209772E-05 -0.292430E-06 -0.169819E-05 -0.747982E-06  0.174769E-05
  0.443562E-05 -0.747982E-06  0.517132E-06  0.517132E-06 -0.747982E-06  0.443562E-05
  0.122998E-05 -0.436451E-06 -0.167742E-05  0.404353E-05  0.173249E-05  0.585134E-06
 -0.385909E-06 -0.172512E-05 -0.326433E-05 -0.326433E-05 -0.172512E-05 -0.385909E-06
  0.585134E-06  0.173249E-05  0.404353E-05 -0.167742E-05 -0.436451E-06  0.122998E-05
  0.443562E-05 -0.840553E-06  0.122998E-05 -0.169819E-05  0.112377E-05 -0.169819E-05
  0.122998E-05 -0.840553E-06 -0.699309E-06 -0.192709E-05 -0.166414E-05  0.822458E-06
  0.585134E-06  0.257891E-05 -0.105688E-05  0.303067E-07  0.183467E-07  0.303067E-07
 -0.105688E-05  0.257891E-05  0.585134E-06  0.822458E-06 -0.166414E-05 -0.192709E-05
 -0.699309E-06 -0.840553E-06 -0.260694E-05 -0.699309E-06 -0.436451E-06 -0.292430E-06
 -0.292430E-06 -0.436451E-06 -0.699309E-06 -0.260694E-05  0.226710E-06 -0.178255E-05
  0.321232E-06 -0.678020E-06 -0.385909E-06 -0.105688E-05  0.272223E-05  0.214538E-05
  0.214538E-05  0.272223E-05 -0.105688E-05 -0.385909E-06 -0.678020E-06  0.321232E-06
 -0.178255E-05  0.226710E-06 -0.260694E-05  0.921088E-06  0.226710E-06 -0.192709E-05
 -0.167742E-05  0.209772E-05 -0.167742E-05 -0.192709E-05  0.226710E-06  0.921088E-06
 -0.896770E-06  0.158431E-06  0.581025E-06 -0.312115E-07 -0.172512E-05  0.303067E-07
  0.214538E-05 -0.309313E-05  0.214538E-05  0.303067E-07 -0.172512E-05 -0.312115E-07
  0.581025E-06  0.158431E-06 -0.896770E-06  0.921088E-06 -0.196665E-05 -0.896770E-06
 -0.178255E-05 -0.166414E-05  0.404353E-05  0.404353E-05 -0.166414E-05 -0.178255E-05
 -0.896770E-06 -0.196665E-05 -0.866669E-06  0.263427E-06  0.550102E-06  0.119260E-05
 -0.326433E-05  0.183467E-07  0.214538E-05  0.214538E-05  0.183467E-07 -0.326433E-05
  0.119260E-05  0.550102E-06  0.263427E-06 -0.866669E-06 -0.196665E-05 -0.187532E-05
 -0.866669E-06  0.158431E-06  0.321232E-06  0.822458E-06  0.173249E-05  0.822458E-06
  0.321232E-06  0.158431E-06 -0.866669E-06 -0.187532E-05 -0.103722E-05 -0.833775E-06
 -0.129836E-06 -0.105156E-05 -0.326433E-05  0.303067E-07  0.272223E-05  0.303067E-07
 -0.326433E-05 -0.105156E-05 -0.129836E-06 -0.833775E-06 -0.103722E-05 -0.187532E-05
 -0.133359E-05 -0.103722E-05  0.263427E-06  0.581025E-06 -0.678020E-06  0.585134E-06
  0.585134E-06 -0.678020E-06  0.581025E-06  0.263427E-06 -0.103722E-05 -0.133359E-05
  0.943509E-06  0.236556E-06 -0.129836E-06  0.119260E-05 -0.172512E-05 -0.105688E-05
 -0.105688E-05 -0.172512E-05  0.119260E-05 -0.129836E-06  0.236556E-06  0.943509E-06
 -0.133359E-05  0.136647E-05  0.943509E-06 -0.833775E-06  0.550102E-06 -0.312115E-07
 -0.385909E-06  0.257891E-05 -0.385909E-06 -0.312115E-07  0.550102E-06 -0.833775E-06
  0.943509E-06  0.136647E-05  0.943509E-06 -0.833775E-06  0.550102E-06 -0.312115E-07
 -0.385909E-06  0.257891E-05 -0.385909E-06 -0.312115E-07  0.550102E-06 -0.833775E-06
  0.943509E-06  0.136647E-05 -0.133359E-05  0.943509E-06  0.236556E-06 -0.129836E-06
  0.119260E-05 -0.172512E-05 -0.105688E-05 -0.105688E-05 -0.172512E-05  0.119260E-05
 -0.129836E-06  0.236556E-06  0.943509E-06 -0.133359E-05 -0.103722E-05  0.263427E-06
  0.581025E-06 -0.678020E-06  0.585134E-06  0.585134E-06 -0.678020E-06  0.581025E-06
  0.263427E-06 -0.103722E-05 -0.133359E-05 -0.187532E-05 -0.103722E-05 -0.833775E-06
 -0.129836E-06 -0.105156E-05 -0.326433E-05  0.303067E-07  0.272223E-05  0.303067E-07
 -0.326433E-05 -0.105156E-05 -0.129836E-06 -0.833775E-06 -0.103722E-05 -0.187532E-05
 -0.866669E-06  0.158431E-06  0.321232E-06  0.822458E-06  0.173249E-05  0.822458E-06
  0.321232E-06  0.158431E-06 -0.866669E-06 -0.187532E-05 -0.196665E-05 -0.866669E-06
  0.263427E-06  0.550102E-06  0.119260E-05 -0.326433E-05  0.183467E-07  0.214538E-05
  0.214538E-05  0.183467E-07 -0.326433E-05  0.119260E-05  0.550102E-06  0.263427E-06
 -0.866669E-06 -0.196665E-05 -0.896770E-06 -0.178255E-05 -0.166414E-05  0.404353E-05
  0.404353E-05 -0.166414E-05 -0.178255E-05 -0.896770E-06 -0.196665E-05  0.921088E-06
 -0.896770E-06  0.158431E-06  0.581025E-06 -0.312115E-07 -0.172512E-05  0.303067E-07
  0.214538E-05 -0.309313E-05  0.214538E-05  0.303067E-07 -0.172512E-05 -0.312115E-07
  0.581025E-06  0.158431E-06 -0.896770E-06  0.921088E-06  0.226710E-06 -0.192709E-05
 -0.167742E-05  0.209772E-05 -0.167742E-05 -0.192709E-05  0.226710E-06  0.921088E-06
 -0.260694E-05  0.226710E-06 -0.178255E-05  0.321232E-06 -0.678020E-06 -0.385909E-06
 -0.105688E-05  0.272223E-05  0.214538E-05  0.214538E-05  0.272223E-05 -0.105688E-05
 -0.385909E-06 -0.678020E-06  0.321232E-06 -0.178255E-05  0.226710E-06 -0.260694E-05
 -0.699309E-06 -0.436451E-06 -0.292430E-06 -0.292430E-06 -0.436451E-06 -0.699309E-06
 -0.260694E-05 -0.840553E-06 -0.699309E-06 -0.192709E-05 -0.166414E-05  0.822458E-06
  0.585134E-06  0.257891E-05 -0.105688E-05  0.303067E-07  0.183467E-07  0.303067E-07
 -0.105688E-05  0.257891E-05  0.585134E-06  0.822458E-06 -0.166414E-05 -0.192709E-05
 -0.699309E-06 -0.840553E-06  0.122998E-05 -0.169819E-05  0.112377E-05 -0.169819E-05
  0.122998E-05 -0.840553E-06  0.443562E-05  0.122998E-05 -0.436451E-06 -0.167742E-05
  0.404353E-05  0.173249E-05  0.585134E-06 -0.385909E-06 -0.172512E-05 -0.326433E-05
 -0.326433E-05 -0.172512E-05 -0.385909E-06  0.585134E-06  0.173249E-05  0.404353E-05
 -0.167742E-05 -0.436451E-06  0.122998E-05  0.443562E-05 -0.747982E-06  0.517132E-06
  0.517132E-06 -0.747982E-06  0.443562E-05  0.174769E-05 -0.747982E-06 -0.169819E-05
 -0.292430E-06  0.209772E-05  0.404353E-05  0.822458E-06 -0.678020E-06 -0.312115E-07
  0.119260E-05 -0.105156E-05  0.119260E-05 -0.312115E-07 -0.678020E-06  0.822458E-06
  0.404353E-05  0.209772E-05 -0.292430E-06 -0.169819E-05 -0.747982E-06  0.174769E-05
 -0.634934E-07  0.208304E-05 -0.634934E-07  0.174769E-05 -0.123440E-05 -0.634934E-07
  0.517132E-06  0.112377E-05 -0.292430E-06 -0.167742E-05 -0.166414E-05  0.321232E-06
  0.581025E-06  0.550102E-06 -0.129836E-06 -0.129836E-06  0.550102E-06  0.581025E-06
  0.321232E-06 -0.166414E-05 -0.167742E-05 -0.292430E-06  0.112377E-05  0.517132E-06
 -0.634934E-07 -0.123440E-05 -0.141164E-05 -0.141164E-05 -0.123440E-05  0.246437E-06
 -0.141164E-05  0.208304E-05  0.517132E-06 -0.169819E-05 -0.436451E-06 -0.192709E-05
 -0.178255E-05  0.158431E-06  0.263427E-06 -0.833775E-06  0.236556E-06 -0.833775E-06
  0.263427E-06  0.158431E-06 -0.178255E-05 -0.192709E-05 -0.436451E-06 -0.169819E-05
  0.517132E-06  0.208304E-05 -0.141164E-05  0.246437E-06  0.152131E-05  0.246437E-06
  0.206475E-05  0.152131E-05 -0.141164E-05 -0.634934E-07 -0.747982E-06  0.122998E-05
 -0.699309E-06  0.226710E-06 -0.896770E-06 -0.866669E-06 -0.103722E-05  0.943509E-06
  0.943509E-06 -0.103722E-05 -0.866669E-06 -0.896770E-06  0.226710E-06 -0.699309E-06
  0.122998E-05 -0.747982E-06 -0.634934E-07 -0.141164E-05  0.152131E-05  0.206475E-05
  0.206475E-05 -0.304756E-05  0.206475E-05  0.246437E-06 -0.123440E-05  0.174769E-05
  0.443562E-05 -0.840553E-06 -0.260694E-05  0.921088E-06 -0.196665E-05 -0.187532E-05
 -0.133359E-05  0.136647E-05 -0.133359E-05 -0.187532E-05 -0.196665E-05  0.921088E-06
 -0.260694E-05 -0.840553E-06  0.443562E-05  0.174769E-05 -0.123440E-05  0.246437E-06
  0.206475E-05 -0.304756E-05 -0.203338E-05 -0.127011E-05  0.516989E-06 -0.785022E-06
 -0.273184E-05 -0.262921E-06 -0.175981E-05  0.200204E-05  0.639513E-06 -0.164851E-05
  0.305617E-05  0.325395E-05  0.517020E-05  0.325395E-05  0.305617E-05 -0.164851E-05
  0.639513E-06  0.200204E-05 -0.175981E-05 -0.262921E-06 -0.273184E-05 -0.785022E-06
  0.516989E-06 -0.127011E-05 -0.203338E-05 -0.127011E-05 -0.127011E-05 -0.176437E-06
  0.404125E-06 -0.897668E-06  0.581022E-06  0.585087E-06 -0.325172E-06  0.241312E-05
  0.158029E-06  0.140341E-05 -0.120767E-05 -0.201052E-05 -0.201052E-05 -0.120767E-05
  0.140341E-05  0.158029E-06  0.241312E-05 -0.325172E-06  0.585087E-06  0.581022E-06
 -0.897668E-06  0.404125E-06 -0.176437E-06 -0.127011E-05  0.516989E-06 -0.176437E-06
  0.516989E-06  0.404125E-06  0.724855E-06  0.747616E-06  0.529064E-06  0.105591E-06
  0.464045E-06  0.129432E-05  0.243952E-05  0.169045E-06 -0.246132E-05 -0.838629E-06
 -0.246132E-05  0.169045E-06  0.243952E-05  0.129432E-05  0.464045E-06  0.105591E-06
  0.529064E-06  0.747616E-06  0.724855E-06  0.404125E-06  0.516989E-06 -0.785022E-06
  0.404125E-06  0.404125E-06 -0.785022E-06 -0.897668E-06  0.747616E-06 -0.232767E-05
 -0.955547E-06  0.139056E-05 -0.100163E-05 -0.247356E-06 -0.795719E-07  0.111969E-05
  0.374855E-05  0.374855E-05  0.111969E-05 -0.795719E-07 -0.247356E-06 -0.100163E-05
  0.139056E-05 -0.955547E-06 -0.232767E-05  0.747616E-06 -0.897668E-06 -0.785022E-06
 -0.273184E-05 -0.897668E-06  0.724855E-06 -0.897668E-06 -0.273184E-05  0.581022E-06
  0.529064E-06 -0.955547E-06  0.251862E-05 -0.178404E-05 -0.205707E-05 -0.891991E-06
 -0.948480E-06  0.469581E-06 -0.230272E-05  0.469581E-06 -0.948480E-06 -0.891991E-06
 -0.205707E-05 -0.178404E-05  0.251862E-05 -0.955547E-06  0.529064E-06  0.581022E-06
 -0.273184E-05 -0.262921E-06  0.581022E-06  0.747616E-06  0.747616E-06  0.581022E-06
 -0.262921E-06  0.585087E-06  0.105591E-06  0.139056E-05 -0.178404E-05 -0.258516E-05
  0.217667E-05 -0.690719E-06  0.254894E-05 -0.618779E-06 -0.618779E-06  0.254894E-05
 -0.690719E-06  0.217667E-05 -0.258516E-05 -0.178404E-05  0.139056E-05  0.105591E-06
  0.585087E-06 -0.262921E-06 -0.175981E-05  0.585087E-06  0.529064E-06 -0.232767E-05
  0.529064E-06  0.585087E-06 -0.175981E-05 -0.325172E-06  0.464045E-06 -0.100163E-05
 -0.205707E-05  0.217667E-05 -0.151372E-05 -0.176301E-05  0.310882E-05  0.526457E-06
  0.310882E-05 -0.176301E-05 -0.151372E-05  0.217667E-05 -0.205707E-05 -0.100163E-05
  0.464045E-06 -0.325172E-06 -0.175981E-05  0.200204E-05 -0.325172E-06  0.105591E-06
 -0.955547E-06 -0.955547E-06  0.105591E-06 -0.325172E-06  0.200204E-05  0.241312E-05
  0.129432E-05 -0.247356E-06 -0.891991E-06 -0.690719E-06 -0.176301E-05 -0.436383E-08
 -0.143614E-05 -0.143614E-05 -0.436383E-08 -0.176301E-05 -0.690719E-06 -0.891991E-06
 -0.247356E-06  0.129432E-05  0.241312E-05  0.200204E-05  0.639513E-06  0.241312E-05
  0.464045E-06  0.139056E-05  0.251862E-05  0.139056E-05  0.464045E-06  0.241312E-05
  0.639513E-06  0.158029E-06  0.243952E-05 -0.795719E-07 -0.948480E-06  0.254894E-05
  0.310882E-05 -0.143614E-05 -0.393561E-05 -0.143614E-05  0.310882E-05  0.254894E-05
 -0.948480E-06 -0.795719E-07  0.243952E-05  0.158029E-06  0.639513E-06 -0.164851E-05
  0.158029E-06  0.129432E-05 -0.100163E-05 -0.178404E-05 -0.178404E-05 -0.100163E-05
  0.129432E-05  0.158029E-06 -0.164851E-05  0.140341E-05  0.169045E-06  0.111969E-05
  0.469581E-06 -0.618779E-06  0.526457E-06 -0.143614E-05 -0.143614E-05  0.526457E-06
 -0.618779E-06  0.469581E-06  0.111969E-05  0.169045E-06  0.140341E-05 -0.164851E-05
  0.305617E-05  0.140341E-05  0.243952E-05 -0.247356E-06 -0.205707E-05 -0.258516E-05
 -0.205707E-05 -0.247356E-06  0.243952E-05  0.140341E-05  0.305617E-05 -0.120767E-05
 -0.246132E-05  0.374855E-05 -0.230272E-05 -0.618779E-06  0.310882E-05 -0.436383E-08
  0.310882E-05 -0.618779E-06 -0.230272E-05  0.374855E-05 -0.246132E-05 -0.120767E-05
  0.305617E-05  0.325395E-05 -0.120767E-05  0.169045E-06 -0.795719E-07 -0.891991E-06
  0.217667E-05  0.217667E-05 -0.891991E-06 -0.795719E-07  0.169045E-06 -0.120767E-05
  0.325395E-05 -0.201052E-05 -0.838629E-06  0.374855E-05  0.469581E-06  0.254894E-05
 -0.176301E-05 -0.176301E-05  0.254894E-05  0.469581E-06  0.374855E-05 -0.838629E-06
 -0.201052E-05  0.325395E-05  0.517020E-05 -0.201052E-05 -0.246132E-05  0.111969E-05
 -0.948480E-06 -0.690719E-06 -0.151372E-05 -0.690719E-06 -0.948480E-06  0.111969E-05
 -0.246132E-05 -0.201052E-05  0.517020E-05 -0.201052E-05 -0.246132E-05  0.111969E-05
 -0.948480E-06 -0.690719E-06 -0.151372E-05 -0.690719E-06 -0.948480E-06  0.111969E-05
 -0.246132E-05 -0.201052E-05  0.517020E-05  0.325395E-05 -0.201052E-05 -0.838629E-06
  0.374855E-05  0.469581E-06  0.254894E-05 -0.176301E-05 -0.176301E-05  0.254894E-05
  0.469581E-06  0.374855E-05 -0.838629E-06 -0.201052E-05  0.325395E-05 -0.120767E-05
  0.169045E-06 -0.795719E-07 -0.891991E-06  0.217667E-05  0.217667E-05 -0.891991E-06
 -0.795719E-07  0.169045E-06 -0.120767E-05  0.325395E-05  0.305617E-05 -0.120767E-05
 -0.246132E-05  0.374855E-05 -0.230272E-05 -0.618779E-06  0.310882E-05 -0.436383E-08
  0.310882E-05 -0.618779E-06 -0.230272E-05  0.374855E-05 -0.246132E-05 -0.120767E-05
  0.305617E-05  0.140341E-05  0.243952E-05 -0.247356E-06 -0.205707E-05 -0.258516E-05
 -0.205707E-05 -0.247356E-06  0.243952E-05  0.140341E-05  0.305617E-05 -0.164851E-05
  0.140341E-05  0.169045E-06  0.111969E-05  0.469581E-06 -0.618779E-06  0.526457E-06
 -0.143614E-05 -0.143614E-05  0.526457E-06 -0.618779E-06  0.469581E-06  0.111969E-05
  0.169045E-06  0.140341E-05 -0.164851E-05  0.158029E-06  0.129432E-05 -0.100163E-05
 -0.178404E-05 -0.178404E-05 -0.100163E-05  0.129432E-05  0.158029E-06 -0.164851E-05
  0.639513E-06  0.158029E-06  0.243952E-05 -0.795719E-07 -0.948480E-06  0.254894E-05
  0.310882E-05 -0.143614E-05 -0.393561E-05 -0.143614E-05  0.310882E-05  0.254894E-05
 -0.948480E-06 -0.795719E-07  0.243952E-05  0.158029E-06  0.639513E-06  0.241312E-05
  0.464045E-06  0.139056E-05  0.251862E-05  0.139056E-05  0.464045E-06  0.241312E-05
  0.639513E-06  0.200204E-05  0.241312E-05  0.129432E-05 -0.247356E-06 -0.891991E-06
 -0.690719E-06 -0.176301E-05 -0.436383E-08 -0.143614E-05 -0.143614E-05 -0.436383E-08
 -0.176301E-05 -0.690719E-06 -0.891991E-06 -0.247356E-06  0.129432E-05  0.241312E-05
  0.200204E-05 -0.325172E-06  0.105591E-06 -0.955547E-06 -0.955547E-06  0.105591E-06
 -0.325172E-06  0.200204E-05 -0.175981E-05 -0.325172E-06  0.464045E-06 -0.100163E-05
 -0.205707E-05  0.217667E-05 -0.151372E-05 -0.176301E-05  0.310882E-05  0.526457E-06
  0.310882E-05 -0.176301E-05 -0.151372E-05  0.217667E-05 -0.205707E-05 -0.100163E-05
  0.464045E-06 -0.325172E-06 -0.175981E-05  0.585087E-06  0.529064E-06 -0.232767E-05
  0.529064E-06  0.585087E-06 -0.175981E-05 -0.262921E-06  0.585087E-06  0.105591E-06
  0.139056E-05 -0.178404E-05 -0.258516E-05  0.217667E-05 -0.690719E-06  0.254894E-05
 -0.618779E-06 -0.618779E-06  0.254894E-05 -0.690719E-06  0.217667E-05 -0.258516E-05
 -0.178404E-05  0.139056E-05  0.105591E-06  0.585087E-06 -0.262921E-06  0.581022E-06
  0.747616E-06  0.747616E-06  0.581022E-06 -0.262921E-06 -0.273184E-05  0.581022E-06
  0.529064E-06 -0.955547E-06  0.251862E-05 -0.178404E-05 -0.205707E-05 -0.891991E-06
 -0.948480E-06  0.469581E-06 -0.230272E-05  0.469581E-06 -0.948480E-06 -0.891991E-06
 -0.205707E-05 -0.178404E-05  0.251862E-05 -0.955547E-06  0.529064E-06  0.581022E-06
 -0.273184E-05 -0.897668E-06  0.724855E-06 -0.897668E-06 -0.273184E-05 -0.785022E-06
 -0.897668E-06  0.747616E-06 -0.232767E-05 -0.955547E-06  0.139056E-05 -0.100163E-05
 -0.247356E-06 -0.795719E-07  0.111969E-05  0.374855E-05  0.374855E-05  0.111969E-05
 -0.795719E-07 -0.247356E-06 -0.100163E-05  0.139056E-05 -0.955547E-06 -0.232767E-05
  0.747616E-06 -0.897668E-06 -0.785022E-06  0.404125E-06  0.404125E-06 -0.785022E-06
  0.516989E-06  0.404125E-06  0.724855E-06  0.747616E-06  0.529064E-06  0.105591E-06
  0.464045E-06  0.129432E-05  0.243952E-05  0.169045E-06 -0.246132E-05 -0.838629E-06
 -0.246132E-05  0.169045E-06  0.243952E-05  0.129432E-05  0.464045E-06  0.105591E-06
  0.529064E-06  0.747616E-06  0.724855E-06  0.404125E-06  0.516989E-06 -0.176437E-06
  0.516989E-06 -0.127011E-05 -0.176437E-06  0.404125E-06 -0.897668E-06  0.581022E-06
  0.585087E-06 -0.325172E-06  0.241312E-05  0.158029E-06  0.140341E-05 -0.120767E-05
 -0.201052E-05 -0.201052E-05 -0.120767E-05  0.140341E-05  0.158029E-06  0.241312E-05
 -0.325172E-06  0.585087E-06  0.581022E-06 -0.897668E-06  0.404125E-06 -0.176437E-06
 -0.127011E-05 -0.127011E-05 -0.203338E-05 -0.127011E-05  0.516989E-06 -0.785022E-06
 -0.273184E-05 -0.262921E-06 -0.175981E-05  0.200204E-05  0.639513E-06 -0.164851E-05
  0.305617E-05  0.325395E-05  0.517020E-05  0.325395E-05  0.305617E-05 -0.164851E-05
  0.639513E-06  0.200204E-05 -0.175981E-05 -0.262921E-06 -0.273184E-05 -0.785022E-06
  0.516989E-06 -0.127011E-05 -0.203338E-05  0.743918E-05  0.243044E-06  0.644675E-07
  0.437387E-05 -0.675055E-06 -0.299038E-05 -0.110823E-06  0.166282E-05 -0.214776E-05
 -0.505333E-06  0.176481E-05 -0.412333E-06 -0.487085E-06 -0.412333E-06  0.176481E-05
 -0.505333E-06 -0.214776E-05  0.166282E-05 -0.110823E-06 -0.299038E-05 -0.675055E-06
  0.437387E-05  0.644675E-07  0.243044E-06  0.743918E-05  0.243044E-06  0.243044E-06
 -0.230071E-05  0.918663E-06  0.588390E-06  0.962027E-06  0.384281E-07 -0.105586E-05
 -0.143083E-05 -0.204695E-05  0.313479E-06 -0.668314E-06 -0.153992E-05 -0.153992E-05
 -0.668314E-06  0.313479E-06 -0.204695E-05 -0.143083E-05 -0.105586E-05  0.384281E-07
  0.962027E-06  0.588390E-06  0.918663E-06 -0.230071E-05  0.243044E-06  0.644675E-07
 -0.230071E-05  0.644675E-07  0.918663E-06 -0.292870E-05 -0.624849E-06  0.273260E-05
 -0.234224E-06 -0.232572E-06 -0.766475E-06 -0.184560E-05  0.796165E-07  0.148617E-05
  0.210798E-05  0.148617E-05  0.796165E-07 -0.184560E-05 -0.766475E-06 -0.232572E-06
 -0.234224E-06  0.273260E-05 -0.624849E-06 -0.292870E-05  0.918663E-06  0.644675E-07
  0.437387E-05  0.918663E-06  0.918663E-06  0.437387E-05  0.588390E-06 -0.624849E-06
 -0.534135E-06 -0.627536E-06  0.170328E-05  0.288391E-05  0.338783E-06 -0.136410E-05
 -0.495056E-06 -0.156414E-06 -0.156414E-06 -0.495056E-06 -0.136410E-05  0.338783E-06
  0.288391E-05  0.170328E-05 -0.627536E-06 -0.534135E-06 -0.624849E-06  0.588390E-06
  0.437387E-05 -0.675055E-06  0.588390E-06 -0.292870E-05  0.588390E-06 -0.675055E-06
  0.962027E-06  0.273260E-05 -0.627536E-06 -0.126336E-05 -0.203582E-05  0.211798E-05
  0.202976E-05 -0.185170E-05 -0.291058E-05 -0.317973E-05 -0.291058E-05 -0.185170E-05
  0.202976E-05  0.211798E-05 -0.203582E-05 -0.126336E-05 -0.627536E-06  0.273260E-05
  0.962027E-06 -0.675055E-06 -0.299038E-05  0.962027E-06 -0.624849E-06 -0.624849E-06
  0.962027E-06 -0.299038E-05  0.384281E-07 -0.234224E-06  0.170328E-05 -0.203582E-05
 -0.178905E-05  0.162257E-05  0.297139E-06  0.285948E-05  0.293903E-05  0.293903E-05
  0.285948E-05  0.297139E-06  0.162257E-05 -0.178905E-05 -0.203582E-05  0.170328E-05
 -0.234224E-06  0.384281E-07 -0.299038E-05 -0.110823E-06  0.384281E-07  0.273260E-05
 -0.534135E-06  0.273260E-05  0.384281E-07 -0.110823E-06 -0.105586E-05 -0.232572E-06
  0.288391E-05  0.211798E-05  0.162257E-05 -0.225754E-05  0.454273E-06 -0.809055E-07
 -0.301503E-05 -0.809055E-07  0.454273E-06 -0.225754E-05  0.162257E-05  0.211798E-05
  0.288391E-05 -0.232572E-06 -0.105586E-05 -0.110823E-06  0.166282E-05 -0.105586E-05
 -0.234224E-06 -0.627536E-06 -0.627536E-06 -0.234224E-06 -0.105586E-05  0.166282E-05
 -0.143083E-05 -0.766475E-06  0.338783E-06  0.202976E-05  0.297139E-06  0.454273E-06
 -0.321862E-05 -0.760108E-06 -0.760108E-06 -0.321862E-05  0.454273E-06  0.297139E-06
  0.202976E-05  0.338783E-06 -0.766475E-06 -0.143083E-05  0.166282E-05 -0.214776E-05