
     Program PWSCF v.7.5 starts on  7Jan2026 at 10:48: 6 

     This program is part of the open-source Quantum ESPRESSO suite
     for quantum simulation of materials; please cite
         "P. Giannozzi et al., J. Phys.:Condens. Matter 21 395502 (2009);
         "P. Giannozzi et al., J. Phys.:Condens. Matter 29 465901 (2017);
         "P. Giannozzi et al., J. Chem. Phys. 152 154105 (2020);
          URL http://www.quantum-espresso.org", 
     in publications or presentations arising from this work. More details at
     http://www.quantum-espresso.org/quote

     Parallel version (MPI), running on     4 processors

     MPI processes distributed on     1 nodes
     524 MiB available memory on the printing compute node when the environment starts

     Waiting for input...
     Reading input from standard input

     Current dimensions of program PWSCF are:
     Max number of different atomic species (ntypx) = 10
     Max number of k-points (npk) =  40000
     Max angular momentum in pseudopotentials (lmaxx) =  4

     R & G space division:  proc/nbgrp/npool/nimage =       4
     Subspace diagonalization in iterative solution of the eigenvalue problem:
     a serial algorithm will be used


     Parallelization info
     --------------------
     sticks:   dense  smooth     PW     G-vecs:    dense   smooth      PW
     Min          90      90     27                 5582     5582     961
     Max          91      91     28                 5595     5595     974
     Sum         361     361    109                22353    22353    3857

     Using Slab Decomposition



     bravais-lattice index     =            4
     lattice parameter (alat)  =       4.6531  a.u.
     unit-cell volume          =     354.3310 (a.u.)^3
     number of atoms/cell      =            2
     number of atomic types    =            1
     number of electrons       =         8.00
     number of Kohn-Sham states=            8
     kinetic-energy cutoff     =      60.0000  Ry
     charge density cutoff     =     240.0000  Ry
     scf convergence threshold =      1.0E-06
     mixing beta               =       0.7000
     number of iterations used =            8  plain     mixing
     Exchange-correlation= PBE
                           (   1   4   3   4   0   0   0)

     celldm(1)=   4.653073  celldm(2)=   0.000000  celldm(3)=   4.061244
     celldm(4)=   0.000000  celldm(5)=   0.000000  celldm(6)=   0.000000

     crystal axes: (cart. coord. in units of alat)
               a(1) = (   1.000000   0.000000   0.000000 )  
               a(2) = (  -0.500000   0.866025   0.000000 )  
               a(3) = (   0.000000   0.000000   4.061244 )  

     reciprocal axes: (cart. coord. in units 2 pi/alat)
               b(1) = (  1.000000  0.577350 -0.000000 )  
               b(2) = (  0.000000  1.154701  0.000000 )  
               b(3) = (  0.000000 -0.000000  0.246230 )  


     PseudoPot. # 1 for C  read from file:
     ../pseudo/C.pbe-n-rrkjus_psl.0.1.UPF
     MD5 check sum: 96a6a315177d77e6c95bf6fd3870f9e3
     Pseudo is Ultrasoft + core correction, Zval =  4.0
     Generated using &quot;atomic&quot; code by A. Dal Corso  v.6.3MaX
     Using radial grid of 1073 points,  4 beta functions with: 
                l(1) =   0
                l(2) =   0
                l(3) =   1
                l(4) =   1
     Q(r) pseudized with 0 coefficients 


     atomic species   valence    mass     pseudopotential
     C                 4.00    12.01070     C ( 1.00)

     24 Sym. Ops., with inversion, found



   Cartesian axes

     site n.     atom                  positions (alat units)
         1        C      tau(   1) = (   0.0000000   0.5773503   2.0306218  )
         2        C      tau(   2) = (   0.5000000   0.2886751   2.0306218  )

     number of k points=    19  Marzari-Vanderbilt smearing, width (Ry)=  0.0200
                       cart. coord. in units 2pi/alat
        k(    1) = (   0.0000000   0.0000000   0.0000000), wk =   0.0138889
        k(    2) = (   0.0000000   0.0962250   0.0000000), wk =   0.0833333
        k(    3) = (   0.0000000   0.1924501   0.0000000), wk =   0.0833333
        k(    4) = (   0.0000000   0.2886751   0.0000000), wk =   0.0833333
        k(    5) = (   0.0000000   0.3849002   0.0000000), wk =   0.0833333
        k(    6) = (   0.0000000   0.4811252   0.0000000), wk =   0.0833333
        k(    7) = (   0.0000000  -0.5773503   0.0000000), wk =   0.0416667
        k(    8) = (   0.0833333   0.1443376   0.0000000), wk =   0.0833333
        k(    9) = (   0.0833333   0.2405626   0.0000000), wk =   0.1666667
        k(   10) = (   0.0833333   0.3367877   0.0000000), wk =   0.1666667
        k(   11) = (   0.0833333   0.4330127   0.0000000), wk =   0.1666667
        k(   12) = (   0.0833333   0.5292377   0.0000000), wk =   0.1666667
        k(   13) = (   0.1666667   0.2886751   0.0000000), wk =   0.0833333
        k(   14) = (   0.1666667   0.3849002   0.0000000), wk =   0.1666667
        k(   15) = (   0.1666667   0.4811252   0.0000000), wk =   0.1666667
        k(   16) = (   0.1666667   0.5773503   0.0000000), wk =   0.0833333
        k(   17) = (   0.2500000   0.4330127   0.0000000), wk =   0.0833333
        k(   18) = (   0.2500000   0.5292377   0.0000000), wk =   0.1666667
        k(   19) = (   0.3333333   0.5773503   0.0000000), wk =   0.0277778

     Dense  grid:    22353 G-vectors     FFT dimensions: (  24,  24,  96)

     Estimated max dynamical RAM per process >       9.33 MB

     Estimated total dynamical RAM >      37.34 MB

     Check: negative core charge=   -0.000004

     Initial potential from superposition of free atoms

     starting charge       7.9999, renormalised to       8.0000

     negative rho (up, down):  1.490E-05 0.000E+00
     Starting wfcs are    8 randomized atomic wfcs

     total cpu time spent up to now is        0.3 secs

     Self-consistent Calculation

     iteration #  1     ecut=    60.00 Ry     beta= 0.70
     Davidson diagonalization with overlap
     ethr =  1.00E-02,  avg # of iterations =  8.1

     Threshold (ethr) on eigenvalues was too large:
     Diagonalizing with lowered threshold

     Davidson diagonalization with overlap
     ethr =  9.46E-04,  avg # of iterations =  5.4

     negative rho (up, down):  2.754E-07 0.000E+00

     total cpu time spent up to now is        0.6 secs

     total energy              =     -23.88163357 Ry
     estimated scf accuracy    <       0.18923877 Ry

     iteration #  2     ecut=    60.00 Ry     beta= 0.70
     Davidson diagonalization with overlap
     ethr =  2.37E-03,  avg # of iterations =  1.6

     negative rho (up, down):  8.368E-06 0.000E+00

     total cpu time spent up to now is        0.7 secs

     total energy              =     -23.89152353 Ry
     estimated scf accuracy    <       0.00646747 Ry

     iteration #  3     ecut=    60.00 Ry     beta= 0.70
     Davidson diagonalization with overlap
     c_bands:  3 eigenvalues not converged
     c_bands:  1 eigenvalues not converged
     c_bands:  2 eigenvalues not converged
     c_bands:  2 eigenvalues not converged
     c_bands:  1 eigenvalues not converged
     c_bands:  1 eigenvalues not converged
     c_bands:  1 eigenvalues not converged
     c_bands:  2 eigenvalues not converged
     ethr =  8.08E-05,  avg # of iterations = 18.8

     negative rho (up, down):  7.799E-06 0.000E+00

     total cpu time spent up to now is        1.1 secs

     total energy              =     -23.91422324 Ry
     estimated scf accuracy    <       0.00794898 Ry

     iteration #  4     ecut=    60.00 Ry     beta= 0.70
     Davidson diagonalization with overlap
     ethr =  8.08E-05,  avg # of iterations =  2.7

     negative rho (up, down):  1.689E-05 0.000E+00

     total cpu time spent up to now is        1.2 secs

     total energy              =     -23.91720376 Ry
     estimated scf accuracy    <       0.01070249 Ry

     iteration #  5     ecut=    60.00 Ry     beta= 0.70
     Davidson diagonalization with overlap
     ethr =  8.08E-05,  avg # of iterations =  1.3

     negative rho (up, down):  3.696E-05 0.000E+00

     total cpu time spent up to now is        1.3 secs

     total energy              =     -23.90993178 Ry
     estimated scf accuracy    <       0.01499192 Ry

     iteration #  6     ecut=    60.00 Ry     beta= 0.70
     Davidson diagonalization with overlap
     ethr =  8.08E-05,  avg # of iterations =  1.9

     negative rho (up, down):  3.895E-05 0.000E+00

     total cpu time spent up to now is        1.4 secs

     total energy              =     -23.91028577 Ry
     estimated scf accuracy    <       0.00356037 Ry

     iteration #  7     ecut=    60.00 Ry     beta= 0.70
     Davidson diagonalization with overlap
     ethr =  4.45E-05,  avg # of iterations =  1.4

     negative rho (up, down):  3.832E-05 0.000E+00

     total cpu time spent up to now is        1.5 secs

     total energy              =     -23.91051342 Ry
     estimated scf accuracy    <       0.00276307 Ry

     iteration #  8     ecut=    60.00 Ry     beta= 0.70
     Davidson diagonalization with overlap
     ethr =  3.45E-05,  avg # of iterations =  1.8

     negative rho (up, down):  3.854E-05 0.000E+00

     total cpu time spent up to now is        1.6 secs

     total energy              =     -23.91057592 Ry
     estimated scf accuracy    <       0.00266292 Ry

     iteration #  9     ecut=    60.00 Ry     beta= 0.70
     Davidson diagonalization with overlap
     ethr =  3.33E-05,  avg # of iterations =  1.1

     negative rho (up, down):  3.896E-05 0.000E+00

     total cpu time spent up to now is        1.7 secs

     total energy              =     -23.91058849 Ry
     estimated scf accuracy    <       0.00252802 Ry

     iteration # 10     ecut=    60.00 Ry     beta= 0.70
     Davidson diagonalization with overlap
     ethr =  3.16E-05,  avg # of iterations =  1.2

     negative rho (up, down):  3.239E-05 0.000E+00

     total cpu time spent up to now is        1.8 secs

     total energy              =     -23.91137012 Ry
     estimated scf accuracy    <       0.00237554 Ry

     iteration # 11     ecut=    60.00 Ry     beta= 0.70
     Davidson diagonalization with overlap
     ethr =  2.97E-05,  avg # of iterations =  1.4

     negative rho (up, down):  1.111E-04 0.000E+00

     total cpu time spent up to now is        1.9 secs

     total energy              =     -23.90930359 Ry
     estimated scf accuracy    <       0.00372259 Ry

     iteration # 12     ecut=    60.00 Ry     beta= 0.70
     Davidson diagonalization with overlap
     ethr =  2.97E-05,  avg # of iterations =  4.7

     negative rho (up, down):  7.889E-05 0.000E+00

     total cpu time spent up to now is        2.0 secs

     total energy              =     -23.90990581 Ry
     estimated scf accuracy    <       0.00217833 Ry

     iteration # 13     ecut=    60.00 Ry     beta= 0.70
     Davidson diagonalization with overlap
     ethr =  2.72E-05,  avg # of iterations =  1.4

     negative rho (up, down):  7.967E-05 0.000E+00

     total cpu time spent up to now is        2.1 secs

     total energy              =     -23.91001338 Ry
     estimated scf accuracy    <       0.00056203 Ry

     iteration # 14     ecut=    60.00 Ry     beta= 0.70
     Davidson diagonalization with overlap
     c_bands:  1 eigenvalues not converged
     ethr =  7.03E-06,  avg # of iterations =  4.3

     negative rho (up, down):  7.645E-05 0.000E+00

     total cpu time spent up to now is        2.2 secs

     total energy              =     -23.91000198 Ry
     estimated scf accuracy    <       0.00062747 Ry

     iteration # 15     ecut=    60.00 Ry     beta= 0.70
     Davidson diagonalization with overlap
     ethr =  7.03E-06,  avg # of iterations =  1.9

     negative rho (up, down):  8.765E-05 0.000E+00

     total cpu time spent up to now is        2.3 secs

     total energy              =     -23.91005777 Ry
     estimated scf accuracy    <       0.00046416 Ry

     iteration # 16     ecut=    60.00 Ry     beta= 0.70
     Davidson diagonalization with overlap
     ethr =  5.80E-06,  avg # of iterations =  1.6

     negative rho (up, down):  9.161E-05 0.000E+00

     total cpu time spent up to now is        2.4 secs

     total energy              =     -23.90990721 Ry
     estimated scf accuracy    <       0.00051885 Ry

     iteration # 17     ecut=    60.00 Ry     beta= 0.70
     Davidson diagonalization with overlap
     ethr =  5.80E-06,  avg # of iterations =  1.6

     negative rho (up, down):  1.018E-04 0.000E+00

     total cpu time spent up to now is        2.5 secs

     total energy              =     -23.90978731 Ry
     estimated scf accuracy    <       0.00026823 Ry

     iteration # 18     ecut=    60.00 Ry     beta= 0.70
     Davidson diagonalization with overlap
     ethr =  3.35E-06,  avg # of iterations =  5.1

     negative rho (up, down):  8.413E-05 0.000E+00

     total cpu time spent up to now is        2.6 secs

     total energy              =     -23.91013450 Ry
     estimated scf accuracy    <       0.00027345 Ry

     iteration # 19     ecut=    60.00 Ry     beta= 0.70
     Davidson diagonalization with overlap
     ethr =  3.35E-06,  avg # of iterations =  6.1

     negative rho (up, down):  1.146E-04 0.000E+00

     total cpu time spent up to now is        2.8 secs

     total energy              =     -23.91057426 Ry
     estimated scf accuracy    <       0.00078631 Ry

     iteration # 20     ecut=    60.00 Ry     beta= 0.70
     Davidson diagonalization with overlap
     ethr =  3.35E-06,  avg # of iterations =  3.1

     negative rho (up, down):  5.096E-05 0.000E+00

     total cpu time spent up to now is        2.9 secs

     total energy              =     -23.90995313 Ry
     estimated scf accuracy    <       0.00135620 Ry

     iteration # 21     ecut=    60.00 Ry     beta= 0.70
     Davidson diagonalization with overlap
     ethr =  3.35E-06,  avg # of iterations =  2.3

     negative rho (up, down):  4.416E-05 0.000E+00

     total cpu time spent up to now is        3.0 secs

     total energy              =     -23.90986862 Ry
     estimated scf accuracy    <       0.00029713 Ry

     iteration # 22     ecut=    60.00 Ry     beta= 0.70
     Davidson diagonalization with overlap
     ethr =  3.35E-06,  avg # of iterations =  3.1

     negative rho (up, down):  4.687E-05 0.000E+00

     total cpu time spent up to now is        3.1 secs

     total energy              =     -23.90986398 Ry
     estimated scf accuracy    <       0.00007048 Ry

     iteration # 23     ecut=    60.00 Ry     beta= 0.70
     Davidson diagonalization with overlap
     ethr =  8.81E-07,  avg # of iterations =  5.5

     negative rho (up, down):  5.347E-05 0.000E+00

     total cpu time spent up to now is        3.3 secs

     total energy              =     -23.90990739 Ry
     estimated scf accuracy    <       0.00001771 Ry

     iteration # 24     ecut=    60.00 Ry     beta= 0.70
     Davidson diagonalization with overlap
     ethr =  2.21E-07,  avg # of iterations =  2.2

     negative rho (up, down):  5.447E-05 0.000E+00

     total cpu time spent up to now is        3.4 secs

     total energy              =     -23.90991049 Ry
     estimated scf accuracy    <       0.00000158 Ry

     iteration # 25     ecut=    60.00 Ry     beta= 0.70
     Davidson diagonalization with overlap
     ethr =  1.97E-08,  avg # of iterations =  4.4

     negative rho (up, down):  5.434E-05 0.000E+00

     total cpu time spent up to now is        3.5 secs

     End of self-consistent calculation

          k = 0.0000 0.0000 0.0000 (  2759 PWs)   bands (ev):

   -19.9911  -8.0914  -3.5154  -3.5154   2.5509   4.1978   5.1903   7.8815

          k = 0.0000 0.0962 0.0000 (  2774 PWs)   bands (ev):

   -19.8270  -7.8949  -4.1648  -3.8546   2.7757   4.4204   5.4108   7.9528

          k = 0.0000 0.1925 0.0000 (  2786 PWs)   bands (ev):

   -19.3364  -7.3105  -5.8007  -4.6487   3.4499   5.0842   6.0719   7.9191

          k = 0.0000 0.2887 0.0000 (  2772 PWs)   bands (ev):

   -18.5251  -7.8985  -6.3574  -5.5303   4.5719   6.1390   6.8882   7.1423

          k = 0.0000 0.3849 0.0000 (  2782 PWs)   bands (ev):

   -17.4051 -10.1026  -6.2652  -5.0861   4.4805   6.1341   7.2993   7.7602

          k = 0.0000 0.4811 0.0000 (  2776 PWs)   bands (ev):

   -16.0070 -12.2050  -6.7390  -3.6596   2.3382   7.0536   8.1582   9.7015

          k = 0.0000-0.5774 0.0000 (  2804 PWs)   bands (ev):

   -14.7365 -13.7183  -6.9018  -2.8124   1.2367   6.9765  10.5008  10.6342

          k = 0.0833 0.1443 0.0000 (  2777 PWs)   bands (ev):

   -19.4997  -7.5043  -5.1969  -4.5332   3.2253   4.8636   5.8527   8.2546

          k = 0.0833 0.2406 0.0000 (  2778 PWs)   bands (ev):

   -18.8488  -6.9055  -6.7344  -5.5329   4.1241   5.7432   6.7354   7.6808

          k = 0.0833 0.3368 0.0000 (  2785 PWs)   bands (ev):

   -17.8830  -8.9788  -6.4205  -5.6157   5.4686   5.4982   7.0884   7.9619

          k = 0.0833 0.4330 0.0000 (  2781 PWs)   bands (ev):

   -16.6209 -11.1032  -7.0563  -4.2326   3.2887   7.2434   7.8930   8.8098

          k = 0.0833 0.5292 0.0000 (  2789 PWs)   bands (ev):

   -15.1377 -13.0484  -7.3852  -2.9196   1.5143   7.7135   9.4729  10.8726

          k = 0.1667 0.2887 0.0000 (  2782 PWs)   bands (ev):

   -18.0433  -8.2339  -6.8973  -5.7949   5.2461   5.9547   6.8322   7.8429

          k = 0.1667 0.3849 0.0000 (  2786 PWs)   bands (ev):

   -16.9342  -9.9620  -7.9543  -4.5388   4.0008   6.8095   8.3160   9.3542

          k = 0.1667 0.4811 0.0000 (  2774 PWs)   bands (ev):

   -15.5560 -11.8755  -8.5301  -3.1082   2.0826   8.7950   9.6174  10.0700

          k = 0.1667 0.5774 0.0000 (  2774 PWs)   bands (ev):

   -14.3154 -13.3169  -8.7149  -2.2128   1.0110   9.5203  11.0871  11.2584

          k = 0.2500 0.4330 0.0000 (  2770 PWs)   bands (ev):

   -15.7042 -10.9949  -9.4415  -3.1926   2.3820   8.5788   9.7460  11.0934

          k = 0.2500 0.5292 0.0000 (  2781 PWs)   bands (ev):

   -14.2787 -12.4195 -10.1492  -1.8031   0.8575  10.4622  10.7166  11.7786

          k = 0.3333 0.5774 0.0000 (  2778 PWs)   bands (ev):

   -13.0584 -13.0584 -11.0519  -0.4436  -0.4436  10.1788  12.4092  12.4094

     the Fermi energy is    -0.4057 ev

!    total energy              =     -23.90991312 Ry
     estimated scf accuracy    <       0.00000009 Ry
     smearing contrib. (-TS)   =      -0.00018232 Ry
     internal energy E=F+TS    =     -23.90973080 Ry

     The total energy is F=E-TS. E is the sum of the following terms:
     one-electron contribution =     -90.80371077 Ry
     hartree contribution      =      47.23713402 Ry
     xc contribution           =      -8.30620332 Ry
     ewald contribution        =      27.96304927 Ry

     convergence has been achieved in  25 iterations

     Writing all to output data dir ../tmp/gr.save/ :
     XML data file, charge density, pseudopotentials, collected wavefunctions

     init_run     :      0.10s CPU      0.23s WALL (       1 calls)
     electrons    :      2.08s CPU      3.25s WALL (       1 calls)

     Called by init_run:
     wfcinit      :      0.03s CPU      0.03s WALL (       1 calls)
     potinit      :      0.00s CPU      0.01s WALL (       1 calls)
     hinit0       :      0.07s CPU      0.17s WALL (       1 calls)

     Called by electrons:
     c_bands      :      1.73s CPU      2.71s WALL (      26 calls)
     sum_band     :      0.25s CPU      0.40s WALL (      26 calls)
     v_of_rho     :      0.05s CPU      0.08s WALL (      26 calls)
     newd         :      0.04s CPU      0.05s WALL (      26 calls)
     mix_rho      :      0.01s CPU      0.02s WALL (      26 calls)

     Called by c_bands:
     init_us_2    :      0.03s CPU      0.05s WALL (    1007 calls)
     cegterg      :      1.68s CPU      2.63s WALL (     494 calls)

     Called by *egterg:
     cdiaghg      :      0.06s CPU      0.10s WALL (    2263 calls)
     h_psi        :      1.19s CPU      1.85s WALL (    2301 calls)
     s_psi        :      0.08s CPU      0.12s WALL (    2301 calls)
     g_psi        :      0.01s CPU      0.01s WALL (    1788 calls)

     Called by h_psi:
     h_psi:calbec :      0.09s CPU      0.15s WALL (    2301 calls)
     vloc_psi     :      1.01s CPU      1.57s WALL (    2301 calls)
                                        0.00s GPU  (    2301 calls)
     add_vuspsi   :      0.08s CPU      0.12s WALL (    2301 calls)

     General routines
     calbec       :      0.12s CPU      0.19s WALL (    2795 calls)
     fft          :      0.08s CPU      0.18s WALL (     287 calls)
     ffts         :      0.00s CPU      0.00s WALL (      26 calls)
     fftw         :      1.05s CPU      1.65s WALL (   26998 calls)

     Parallel routines

     PWSCF        :      2.19s CPU      3.52s WALL


   This run was terminated on:  10:48:10   7Jan2026            

=------------------------------------------------------------------------------=
   JOB DONE.
=------------------------------------------------------------------------------=
